# LAMMPS data file

200 atoms
1 atom types

-17.985 17.985 xlo xhi
-17.985 17.985 ylo yhi
-17.985 17.985 zlo zhi

Atoms

1 1 -3.461 14.615 -5.381 
2 1 -2.549 -16.378 3.633 
3 1 -2.530 5.929 -8.539 
4 1 -5.216 -12.201 -13.370 
5 1 -1.708 -11.961 0.240 
6 1 -10.219 -14.266 4.825 
7 1 8.828 -9.860 15.789 
8 1 -12.514 5.413 -17.876 
9 1 -15.450 9.694 -0.628 
10 1 11.430 -10.591 7.460 
11 1 5.193 0.341 7.553 
12 1 9.665 -15.850 -10.075 
13 1 -9.782 1.898 16.618 
14 1 -16.591 -6.775 -4.782 
15 1 -8.619 5.433 -8.636 
16 1 7.592 -8.632 -7.850 
17 1 -8.407 -17.011 -0.006 
18 1 -5.767 -5.349 0.426 
19 1 -13.202 7.790 -3.549 
20 1 17.767 -3.045 16.811 
21 1 4.214 9.864 1.796 
22 1 -2.265 13.108 -17.891 
23 1 7.744 -11.575 7.883 
24 1 -2.905 9.940 -6.980 
25 1 -8.482 -15.085 -12.071 
26 1 -13.668 -9.015 -14.015 
27 1 -11.983 17.592 15.245 
28 1 -16.543 -6.093 -0.939 
29 1 -13.258 -11.163 6.361 
30 1 10.672 15.260 -6.974 
31 1 -8.147 -4.301 8.916 
32 1 4.732 -4.044 14.475 
33 1 17.528 4.593 2.906 
34 1 1.930 0.117 -17.752 
35 1 3.591 8.760 17.222 
36 1 -14.362 9.170 -12.482 
37 1 -4.171 -12.177 -3.328 
38 1 8.696 -15.760 -4.172 
39 1 -15.773 6.345 -14.695 
40 1 1.182 -11.097 1.448 
41 1 -14.776 -16.228 -13.819 
42 1 7.439 11.000 -0.383 
43 1 -0.645 -5.832 -5.844 
44 1 15.056 11.597 13.281 
45 1 14.374 -17.365 -15.477 
46 1 12.757 -7.046 17.404 
47 1 0.686 13.659 -8.296 
48 1 17.710 -3.899 -12.692 
49 1 -0.707 -11.195 -6.269 
50 1 -10.321 -0.492 -4.234 
51 1 3.512 13.091 15.496 
52 1 8.287 1.891 6.163 
53 1 -15.128 1.058 4.496 
54 1 -0.188 -8.850 -12.705 
55 1 10.007 2.216 14.675 
56 1 -7.779 15.728 9.373 
57 1 -14.006 -4.700 -6.273 
58 1 7.845 7.201 0.580 
59 1 14.733 -9.526 14.390 
60 1 1.360 -5.022 -13.998 
61 1 13.381 -12.913 -4.033 
62 1 -10.824 -7.168 0.026 
63 1 0.149 14.127 14.747 
64 1 1.442 5.832 6.224 
65 1 8.452 16.319 7.258 
66 1 9.256 12.939 15.238 
67 1 15.011 8.916 3.083 
68 1 4.337 -1.242 10.493 
69 1 1.203 -15.859 10.454 
70 1 13.842 16.655 12.691 
71 1 13.046 7.598 -2.981 
72 1 -7.962 -4.870 -9.597 
73 1 4.976 9.309 13.090 
74 1 10.348 1.936 9.474 
75 1 -15.526 -8.761 -7.917 
76 1 7.508 -13.395 3.475 
77 1 -6.143 0.150 15.301 
78 1 12.194 -9.561 -10.270 
79 1 8.168 -3.619 11.655 
80 1 13.110 -4.875 14.723 
81 1 -8.962 -14.078 14.712 
82 1 16.179 -12.322 9.850 
83 1 4.971 -9.700 6.278 
84 1 -1.954 11.738 -11.331 
85 1 -8.471 12.504 -15.611 
86 1 -0.268 10.053 2.028 
87 1 2.724 15.914 -1.461 
88 1 -3.666 -3.821 9.343 
89 1 17.952 -17.140 -4.962 
90 1 -2.735 3.498 -14.200 
91 1 -13.244 -14.820 9.364 
92 1 2.051 7.617 -12.056 
93 1 -6.924 2.490 -10.301 
94 1 -7.099 -13.125 7.222 
95 1 -2.947 -0.199 -0.754 
96 1 5.007 -14.000 -0.605 
97 1 -8.350 -0.636 -7.723 
98 1 -17.713 12.980 0.404 
99 1 2.089 -13.700 15.382 
100 1 15.506 -10.641 6.163 
101 1 -10.186 0.628 -13.857 
102 1 -5.570 -10.968 2.533 
103 1 4.380 1.178 -9.054 
104 1 -2.239 -14.566 -5.362 
105 1 17.260 1.512 7.014 
106 1 9.283 -13.897 -7.376 
107 1 16.819 -16.123 7.357 
108 1 2.105 17.044 -14.285 
109 1 -12.503 12.434 15.740 
110 1 -8.930 -5.093 2.862 
111 1 12.202 -2.718 0.153 
112 1 10.761 0.865 -5.627 
113 1 9.728 13.555 -13.145 
114 1 -4.606 -9.206 11.513 
115 1 -8.318 1.338 0.757 
116 1 -0.651 14.464 -1.799 
117 1 3.947 10.289 9.600 
118 1 -2.974 -13.459 8.851 
119 1 -15.947 -3.587 7.621 
120 1 -2.067 -1.216 16.263 
121 1 -14.182 14.228 4.753 
122 1 -5.411 7.896 -12.710 
123 1 2.495 -3.447 -6.126 
124 1 12.662 -7.992 3.905 
125 1 7.791 -14.485 12.467 
126 1 -3.615 -7.569 -4.553 
127 1 15.228 -1.353 3.607 
128 1 -3.763 17.854 -0.152 
129 1 9.331 17.583 4.036 
130 1 14.211 -14.419 13.000 
131 1 -7.814 9.316 -6.912 
132 1 -8.646 5.834 17.484 
133 1 3.559 -10.190 -3.370 
134 1 16.179 -3.871 12.079 
135 1 16.995 3.410 -10.468 
136 1 15.705 4.115 -6.447 
137 1 3.036 -8.148 3.454 
138 1 -1.970 -16.982 9.853 
139 1 3.326 14.929 2.224 
140 1 -6.246 -12.660 10.840 
141 1 12.017 7.100 16.774 
142 1 -2.237 -4.352 -2.941 
143 1 15.638 1.218 17.244 
144 1 -7.255 -11.432 -17.166 
145 1 1.558 8.774 -8.792 
146 1 4.157 4.474 -17.280 
147 1 0.270 3.445 -3.263 
148 1 -14.747 -14.433 -9.832 
149 1 -6.740 -6.284 -6.895 
150 1 0.254 10.458 -17.512 
151 1 16.588 -2.015 -4.233 
152 1 -16.812 11.842 16.719 
153 1 3.824 4.348 -12.207 
154 1 5.346 -3.920 0.513 
155 1 5.170 4.631 8.167 
156 1 13.494 -17.096 9.436 
157 1 -5.569 17.488 -10.128 
158 1 -12.289 12.927 8.389 
159 1 -14.604 -3.126 11.495 
160 1 -16.716 -7.546 -16.390 
161 1 11.265 12.014 9.954 
162 1 -17.975 -6.731 -10.567 
163 1 14.791 -12.454 1.687 
164 1 -2.786 14.883 11.659 
165 1 -4.962 14.402 -1.653 
166 1 -6.345 17.984 13.312 
167 1 14.730 2.449 -1.547 
168 1 10.470 -3.972 -16.585 
169 1 4.607 6.843 3.430 
170 1 11.747 -10.215 -6.907 
171 1 -17.014 -10.840 -13.302 
172 1 -4.418 15.850 3.379 
173 1 17.918 16.878 -15.121 
174 1 -13.645 -7.365 -3.522 
175 1 9.833 8.371 14.225 
176 1 -0.672 5.658 13.093 
177 1 -15.392 -5.814 -12.279 
178 1 -8.362 13.496 1.024 
179 1 17.598 11.320 4.440 
180 1 12.239 1.857 -13.149 
181 1 -6.694 -1.734 0.746 
182 1 16.650 -14.083 -13.226 
183 1 8.225 16.634 16.584 
184 1 12.034 -3.938 7.714 
185 1 11.239 5.956 6.418 
186 1 0.573 -2.419 10.463 
187 1 3.733 0.640 -6.142 
188 1 17.560 3.576 -3.528 
189 1 -14.475 9.778 -16.720 
190 1 -0.484 -11.665 5.878 
191 1 -4.020 -6.376 5.433 
192 1 11.361 9.173 7.858 
193 1 -1.256 8.789 4.816 
194 1 17.384 9.788 -14.474 
195 1 15.587 3.802 14.651 
196 1 -15.230 -17.111 15.129 
197 1 -4.548 -9.299 7.204 
198 1 -3.615 -10.706 17.538 
199 1 0.975 6.202 -16.266 
200 1 2.301 14.294 -16.825 
