# LAMMPS data file

200 atoms
1 atom types

-19.597 19.597 xlo xhi
-19.597 19.597 ylo yhi
-19.597 19.597 zlo zhi

Atoms

1 1 17.643 3.002 -16.156 
2 1 -6.533 -2.580 15.389 
3 1 15.834 -8.053 4.512 
4 1 -2.302 12.947 -9.225 
5 1 -3.376 15.037 -2.001 
6 1 -16.904 -19.559 17.834 
7 1 15.266 -17.384 3.751 
8 1 -17.535 -9.369 12.944 
9 1 -6.579 16.520 19.348 
10 1 15.386 0.440 18.840 
11 1 -9.311 -19.375 -11.926 
12 1 -17.621 -10.908 9.820 
13 1 17.964 -11.971 18.690 
14 1 10.930 11.142 -10.897 
15 1 -13.352 0.259 10.397 
16 1 -10.916 0.519 -16.060 
17 1 -10.397 -5.219 7.265 
18 1 10.679 -15.908 -14.868 
19 1 -1.780 4.173 -10.155 
20 1 0.411 -11.865 12.575 
21 1 -6.355 -15.271 9.805 
22 1 -7.494 -17.444 5.889 
23 1 9.348 -13.095 -12.382 
24 1 4.794 5.122 -17.010 
25 1 9.451 12.586 -2.859 
26 1 16.951 1.915 6.430 
27 1 -17.672 -1.152 -17.956 
28 1 -19.440 12.798 13.141 
29 1 6.387 -15.611 5.177 
30 1 12.011 -18.430 8.914 
31 1 -19.346 -3.126 13.712 
32 1 15.485 0.907 9.925 
33 1 -16.208 5.065 -4.380 
34 1 -0.086 7.775 7.226 
35 1 4.600 -16.846 10.405 
36 1 6.036 8.899 7.242 
37 1 -15.340 -1.353 16.711 
38 1 15.504 -3.880 -7.064 
39 1 -13.306 -4.617 -6.010 
40 1 -5.473 -18.164 -1.033 
41 1 11.317 -6.188 -15.039 
42 1 17.760 -13.973 6.159 
43 1 16.979 -6.612 11.663 
44 1 -11.542 6.810 6.133 
45 1 6.331 -13.986 15.357 
46 1 -16.843 -16.556 -16.537 
47 1 -8.638 -8.641 11.449 
48 1 9.631 -10.679 -3.186 
49 1 4.754 2.443 7.077 
50 1 2.499 -15.031 -11.085 
51 1 13.300 -14.224 -4.047 
52 1 19.059 -0.654 -5.510 
53 1 -0.384 -11.564 0.767 
54 1 4.437 7.434 10.190 
55 1 17.230 -0.795 3.353 
56 1 -16.447 -7.447 18.633 
57 1 16.908 8.451 -5.531 
58 1 14.636 9.965 -9.321 
59 1 9.064 1.221 6.789 
60 1 -16.443 1.017 5.616 
61 1 19.422 16.433 -4.606 
62 1 18.774 -16.931 16.533 
63 1 10.176 10.028 13.668 
64 1 -8.596 -10.167 0.639 
65 1 -4.503 -13.342 0.729 
66 1 -2.107 -18.648 3.894 
67 1 -4.795 -17.957 -14.415 
68 1 -4.590 -6.439 0.513 
69 1 -7.164 1.023 -15.474 
70 1 -2.503 -16.453 -11.412 
71 1 11.743 -2.550 11.670 
72 1 -13.014 -9.340 -0.995 
73 1 -5.760 15.597 13.338 
74 1 15.680 1.308 15.495 
75 1 17.144 -2.786 -0.767 
76 1 6.577 11.886 -4.821 
77 1 16.777 16.728 -14.235 
78 1 -1.028 2.741 10.201 
79 1 -3.352 12.352 -18.545 
80 1 -1.925 -8.162 4.960 
81 1 -15.186 4.373 4.914 
82 1 1.217 -0.392 13.208 
83 1 2.868 -8.576 0.222 
84 1 -6.410 12.586 -1.811 
85 1 18.493 15.234 7.266 
86 1 1.954 -7.634 -15.400 
87 1 5.483 17.059 11.298 
88 1 12.692 -5.398 8.697 
89 1 -1.180 -10.206 -16.993 
90 1 10.372 3.619 -14.540 
91 1 -14.766 6.350 10.503 
92 1 16.292 8.667 13.630 
93 1 -16.153 9.674 13.208 
94 1 -0.712 -14.035 -2.702 
95 1 10.827 15.011 -0.498 
96 1 -5.557 10.268 9.912 
97 1 -9.205 1.514 -12.180 
98 1 16.751 -14.573 9.235 
99 1 -0.634 -3.988 -2.900 
100 1 -10.964 1.808 -3.536 
101 1 -16.070 2.767 16.023 
102 1 14.362 -16.151 -16.441 
103 1 -7.511 -18.805 11.597 
104 1 9.484 0.138 -4.614 
105 1 18.137 -16.717 -16.712 
106 1 11.267 13.703 13.087 
107 1 12.580 19.549 0.144 
108 1 -12.920 16.633 -14.036 
109 1 11.261 -12.680 1.717 
110 1 9.016 -3.717 -4.955 
111 1 -12.102 -12.103 -16.501 
112 1 5.281 -8.600 13.489 
113 1 -10.425 -9.196 -18.646 
114 1 -3.312 -9.576 17.352 
115 1 -8.318 5.890 -5.223 
116 1 -9.263 15.620 5.644 
117 1 -10.382 -17.889 7.737 
118 1 7.918 8.724 10.728 
119 1 -14.480 -2.453 -1.507 
120 1 -12.959 14.391 8.593 
121 1 -3.332 -1.070 -3.281 
122 1 -17.523 -5.847 -16.431 
123 1 12.540 -4.451 5.110 
124 1 17.689 2.304 -7.914 
125 1 -1.388 5.095 -3.008 
126 1 14.031 4.109 -14.058 
127 1 13.844 -4.439 19.514 
128 1 8.600 -0.704 17.772 
129 1 -16.992 -12.006 14.602 
130 1 13.232 -17.484 -11.187 
131 1 15.201 9.832 9.376 
132 1 13.327 -6.770 -1.902 
133 1 -7.722 -13.694 6.147 
134 1 -10.109 -9.407 4.126 
135 1 3.907 -3.918 4.688 
136 1 4.443 14.920 -0.075 
137 1 -5.637 5.734 2.851 
138 1 -10.830 -3.104 13.889 
139 1 -0.090 -4.965 18.975 
140 1 11.346 -13.131 6.710 
141 1 3.260 -17.664 -15.330 
142 1 -10.141 -11.279 16.631 
143 1 -1.449 5.655 3.968 
144 1 18.274 -4.040 -19.408 
145 1 14.753 -1.023 -9.446 
146 1 -3.330 18.545 -11.186 
147 1 8.605 -4.482 6.562 
148 1 -11.429 14.539 -2.172 
149 1 -18.640 1.357 9.428 
150 1 -15.396 -5.930 -2.956 
151 1 -13.947 -12.393 4.370 
152 1 14.419 17.656 -3.415 
153 1 -10.561 -6.522 -12.144 
154 1 -11.010 -17.858 16.726 
155 1 12.514 0.942 -15.864 
156 1 -8.287 4.041 -2.535 
157 1 0.381 -19.265 -2.713 
158 1 -11.164 3.541 -8.979 
159 1 -11.281 11.594 -0.365 
160 1 7.021 -0.856 -16.592 
161 1 11.037 5.038 17.966 
162 1 -1.573 -2.325 -9.552 
163 1 -15.724 -4.260 12.402 
164 1 10.379 12.940 8.510 
165 1 0.181 7.559 11.769 
166 1 4.923 -1.744 17.841 
167 1 -12.465 -9.913 13.093 
168 1 -18.556 8.962 -19.299 
169 1 5.532 19.241 8.232 
170 1 -9.061 15.353 -12.081 
171 1 -14.653 8.713 -18.645 
172 1 -19.151 -6.776 7.929 
173 1 -0.606 -14.926 10.785 
174 1 1.650 1.617 -14.288 
175 1 -3.067 18.817 0.831 
176 1 -13.392 5.627 14.149 
177 1 -0.532 1.103 6.953 
178 1 19.066 2.484 17.371 
179 1 17.156 -11.130 15.656 
180 1 8.575 -17.063 2.248 
181 1 -4.536 -13.765 -3.137 
182 1 1.049 -18.434 3.847 
183 1 5.061 3.566 -0.067 
184 1 2.268 7.258 -6.826 
185 1 3.993 4.410 18.280 
186 1 15.904 -13.133 -12.475 
187 1 2.686 14.077 -2.889 
188 1 -14.174 18.404 7.928 
189 1 -5.663 6.467 -8.563 
190 1 -8.214 -2.494 -18.608 
191 1 -2.729 1.296 13.242 
192 1 -7.374 5.732 18.207 
193 1 17.432 -10.199 7.193 
194 1 1.338 17.349 -0.403 
195 1 -11.638 -5.701 1.301 
196 1 4.637 -8.081 -19.259 
197 1 -15.963 10.050 -9.160 
198 1 14.848 -17.496 -5.120 
199 1 11.738 -12.499 12.461 
200 1 -4.649 12.296 -6.114 
