# LAMMPS data file

200 atoms
1 atom types

-19.597 19.597 xlo xhi
-19.597 19.597 ylo yhi
-19.597 19.597 zlo zhi

Atoms

1 1 -1.961 17.117 1.002 
2 1 -5.474 -15.260 -1.209 
3 1 -4.211 2.335 -12.647 
4 1 -5.015 -12.747 -13.832 
5 1 0.603 -8.023 -6.329 
6 1 -5.888 15.290 5.447 
7 1 9.945 -10.699 17.663 
8 1 -14.335 7.607 19.492 
9 1 19.050 13.562 -4.096 
10 1 12.854 -10.831 12.054 
11 1 8.396 3.049 2.632 
12 1 10.460 -16.666 -6.777 
13 1 -11.110 -1.453 -17.491 
14 1 -12.875 -9.722 -3.948 
15 1 -11.490 6.141 -8.393 
16 1 11.325 -7.175 -9.837 
17 1 -9.170 17.692 4.989 
18 1 -4.655 -4.660 0.618 
19 1 -18.705 9.818 2.969 
20 1 -14.665 -5.820 17.936 
21 1 1.567 9.279 4.756 
22 1 -5.365 12.471 -19.338 
23 1 8.886 -12.573 3.419 
24 1 -5.226 10.492 -7.965 
25 1 -9.981 -16.422 -14.615 
26 1 -19.097 -13.016 -15.349 
27 1 -13.821 18.825 16.338 
28 1 -17.832 -8.741 -0.781 
29 1 -13.070 -11.991 12.552 
30 1 13.909 -18.566 -7.523 
31 1 -6.492 -9.096 4.884 
32 1 6.179 -1.930 -18.226 
33 1 15.449 6.737 4.723 
34 1 4.379 0.302 18.811 
35 1 1.803 8.452 -17.634 
36 1 -13.017 5.904 -16.876 
37 1 -1.344 -14.823 -4.853 
38 1 7.169 -17.874 -1.179 
39 1 -15.992 7.316 -16.051 
40 1 1.609 -13.643 1.716 
41 1 -18.393 -18.688 -18.566 
42 1 3.188 10.880 -4.398 
43 1 -1.133 -16.961 -8.902 
44 1 17.235 8.635 15.263 
45 1 16.945 15.180 -12.589 
46 1 13.851 -4.715 -15.112 
47 1 2.302 18.245 -6.599 
48 1 -15.908 -2.520 -17.546 
49 1 5.401 -14.117 -4.591 
50 1 -13.255 -5.226 -0.887 
51 1 3.806 18.311 16.595 
52 1 10.732 4.311 5.364 
53 1 17.105 -0.323 10.229 
54 1 -2.530 -3.347 -15.473 
55 1 16.197 2.337 13.300 
56 1 -9.820 -19.184 1.692 
57 1 -16.275 -1.064 -5.419 
58 1 8.194 9.351 1.695 
59 1 18.041 -12.384 15.982 
60 1 -0.264 -10.334 -13.685 
61 1 13.464 -11.454 0.994 
62 1 -12.632 -6.891 3.907 
63 1 2.627 14.621 16.089 
64 1 0.963 7.577 7.923 
65 1 7.068 17.767 9.373 
66 1 6.331 12.353 17.105 
67 1 14.356 2.956 0.931 
68 1 1.935 0.150 6.784 
69 1 -7.180 -13.359 10.145 
70 1 16.085 19.534 12.419 
71 1 18.919 14.795 -0.191 
72 1 -8.963 -5.854 -12.380 
73 1 7.206 15.598 15.749 
74 1 4.305 3.172 11.293 
75 1 -13.973 -10.257 -8.946 
76 1 9.662 -16.632 3.542 
77 1 -6.700 4.505 16.377 
78 1 11.861 -11.036 -10.043 
79 1 12.142 -5.977 9.382 
80 1 13.720 -10.587 16.560 
81 1 -8.542 -17.432 16.848 
82 1 12.746 -16.272 13.969 
83 1 4.054 -18.180 8.050 
84 1 -0.612 15.699 -11.441 
85 1 -9.687 14.156 18.953 
86 1 -0.556 9.975 1.174 
87 1 1.419 -19.478 0.888 
88 1 -3.861 -3.433 12.218 
89 1 -18.685 -17.314 -4.191 
90 1 -0.876 -0.394 -14.910 
91 1 -15.151 -16.286 7.964 
92 1 -2.254 3.780 -14.843 
93 1 -13.561 5.411 -11.353 
94 1 -9.319 -13.508 7.462 
95 1 -3.625 -1.023 1.455 
96 1 7.715 17.519 -5.569 
97 1 -8.559 -0.254 -10.040 
98 1 12.461 16.110 0.122 
99 1 -0.910 -11.015 18.540 
100 1 18.036 -6.023 3.935 
101 1 -8.646 1.578 -14.605 
102 1 -0.462 -15.733 4.897 
103 1 5.222 4.258 -5.139 
104 1 1.802 -13.149 -2.902 
105 1 -15.477 5.929 3.950 
106 1 12.833 -16.720 -11.599 
107 1 12.298 -18.596 7.504 
108 1 5.457 15.869 -15.280 
109 1 -13.821 12.024 -18.727 
110 1 -6.721 -9.301 -3.346 
111 1 13.006 -7.675 3.581 
112 1 13.052 -2.149 -2.714 
113 1 5.786 12.385 -16.730 
114 1 -2.999 -4.843 15.994 
115 1 -7.985 1.665 0.604 
116 1 6.148 12.956 -8.082 
117 1 4.626 13.870 10.437 
118 1 -1.034 -12.532 7.636 
119 1 16.495 -9.278 6.020 
120 1 0.238 -0.040 16.727 
121 1 -12.815 14.583 5.355 
122 1 -6.318 10.851 -13.445 
123 1 2.590 -2.494 -7.158 
124 1 17.366 -10.634 1.110 
125 1 9.539 -10.935 11.211 
126 1 -4.613 -12.052 -3.073 
127 1 15.864 -1.310 0.541 
128 1 -3.324 -18.398 3.943 
129 1 7.052 14.469 7.207 
130 1 16.279 -15.997 13.149 
131 1 -9.806 9.397 -14.681 
132 1 -15.292 11.253 16.432 
133 1 5.142 -13.050 -9.287 
134 1 16.132 -2.254 16.914 
135 1 17.701 6.717 -9.960 
136 1 17.998 2.460 -3.623 
137 1 -0.377 -5.633 -0.062 
138 1 -0.256 -13.019 12.363 
139 1 -1.376 15.359 -3.550 
140 1 -4.199 -15.262 10.370 
141 1 10.593 11.161 -18.593 
142 1 -8.618 -2.211 -1.339 
143 1 13.551 -5.572 15.849 
144 1 -5.788 -10.809 -19.541 
145 1 -1.123 7.505 -12.321 
146 1 4.388 4.948 -17.469 
147 1 2.672 5.005 -3.224 
148 1 -14.255 -19.160 -11.059 
149 1 -7.675 -5.498 -9.159 
150 1 3.223 19.575 -19.302 
151 1 18.383 1.623 -7.352 
152 1 -18.648 12.664 19.293 
153 1 0.587 3.766 19.170 
154 1 8.112 0.183 -6.137 
155 1 5.970 9.713 7.685 
156 1 15.103 11.088 15.018 
157 1 -6.249 15.380 -9.561 
158 1 -18.342 16.182 13.146 
159 1 -5.542 -12.280 6.689 
160 1 18.105 -6.939 -18.958 
161 1 16.415 -16.408 7.435 
162 1 19.255 -11.191 -11.249 
163 1 15.536 -14.159 5.272 
164 1 -7.052 17.478 9.414 
165 1 -13.044 -14.866 5.120 
166 1 -7.446 17.715 16.242 
167 1 15.577 7.541 0.069 
168 1 10.056 -5.336 16.670 
169 1 5.245 6.153 1.159 
170 1 9.888 -13.763 -8.567 
171 1 -18.618 -8.146 -12.202 
172 1 -5.379 16.002 0.960 
173 1 15.269 17.694 -18.397 
174 1 -17.684 -5.868 -6.379 
175 1 9.515 10.911 17.552 
176 1 -3.126 6.724 -18.541 
177 1 16.982 -5.829 -13.679 
178 1 -12.623 17.618 2.898 
179 1 15.766 16.029 4.594 
180 1 13.448 2.452 -13.136 
181 1 -11.189 -4.890 -4.082 
182 1 16.288 -10.560 -13.739 
183 1 9.912 15.032 -17.277 
184 1 16.164 -5.164 7.792 
185 1 17.200 6.556 8.015 
186 1 -0.300 -4.231 12.433 
187 1 2.544 2.262 -13.627 
188 1 -15.072 8.196 -0.065 
189 1 -18.274 6.356 17.505 
190 1 0.391 18.016 10.375 
191 1 -5.677 -12.537 2.154 
192 1 14.501 14.391 10.949 
193 1 -3.237 7.743 7.098 
194 1 -18.565 8.695 -18.669 
195 1 15.868 4.907 -19.206 
196 1 -10.423 -15.140 19.154 
197 1 0.115 -16.947 10.569 
198 1 -7.742 -9.743 -16.790 
199 1 5.439 6.921 -14.172 
200 1 3.139 11.819 -19.102 
