# LAMMPS data file 

10 atoms
2 atom types

-4336781706.109 4336781706.109 xlo xhi
-4336781706.109 4336781706.109 ylo yhi
-4336781706.109 4336781706.109 zlo zhi

Atoms

1 1 1 0.000 -3251896452.179 3655755495.548 -766607122.917 
2 1 1 0.000 -3471896040.901 -3813175430.770 229299978.792 
3 1 1 0.000 2504423681.497 -544156744.595 1678042602.225 
4 1 1 0.000 2392619787.026 3289218171.304 3414317001.851 
5 1 1 0.000 1123741078.146 -2860689771.442 -115536496.816 
6 1 2 0.000 121049100.987 -731824209.283 3717269687.751 
7 1 2 0.000 1291153812.702 1770612333.415 -2512268990.000 
8 1 2 0.000 2926324848.167 319974566.928 926009117.056 
9 1 2 0.000 816647136.589 -4145901742.056 -2397949635.400 
10 1 2 0.000 3782083126.706 -3823469496.756 -4200182403.967 

Velocities

1 0.007 0.004 0.008 
2 -0.003 0.003 -0.006 
3 0.021 0.035 0.002 
4 0.010 -0.011 0.003 
5 0.003 0.005 0.008 
6 0.008 -0.193 -0.031 
7 0.002 -0.004 -0.017 
8 0.002 0.182 0.026 
9 0.002 0.000 0.003 
10 -0.001 -0.013 0.008 
