# LAMMPS data file 

60 atoms
2 atom types

-15.000 15.000 xlo xhi
-15.000 15.000 ylo yhi
-15.000 15.000 zlo zhi

Atoms

1 1 -7.973 -7.530 4.115 
2 1 -6.394 -6.984 -8.745 
3 1 -7.168 -11.205 12.662 
4 1 -9.754 14.012 5.743 
5 1 -1.121 -13.750 -3.805 
6 1 -13.692 12.407 3.062 
7 1 -8.511 -10.875 1.345 
8 1 7.522 10.595 -13.609 
9 1 5.030 -3.333 -3.340 
10 1 -8.253 14.149 -14.060 
11 1 -14.641 -1.436 -12.271 
12 1 -11.387 -9.367 -10.782 
13 1 -6.583 6.757 8.596 
14 1 -4.207 6.026 13.156 
15 1 10.211 10.051 -1.105 
16 1 4.334 0.429 -14.085 
17 1 0.315 -2.061 10.267 
18 1 -4.984 -8.681 14.920 
19 1 11.451 -14.272 -13.384 
20 1 -5.273 5.597 -10.818 
21 1 5.448 2.817 -12.935 
22 1 -0.490 5.074 6.251 
23 1 -1.902 -13.836 6.100 
24 1 2.502 -4.320 14.874 
25 1 0.320 3.648 -3.309 
26 1 -12.298 -10.522 -5.455 
27 1 -13.293 -0.229 11.077 
28 1 6.746 5.233 5.722 
29 1 -11.267 -5.226 -4.547 
30 1 11.043 -8.885 4.348 
31 1 -7.308 8.545 -3.145 
32 1 4.005 -12.764 2.091 
33 1 -2.758 11.747 1.082 
34 1 9.404 -7.348 -12.530 
35 1 6.453 2.667 6.437 
36 1 11.431 -11.257 4.672 
37 1 7.863 -9.974 -8.783 
38 1 -2.468 -13.251 14.054 
39 1 -2.159 3.773 -13.270 
40 1 -0.220 -5.651 6.750 
41 1 11.509 9.982 1.773 
42 1 -5.628 -3.884 1.211 
43 1 -2.575 -13.701 -9.822 
44 1 5.128 7.907 10.748 
45 1 2.350 -3.826 -1.986 
46 1 -8.666 -9.638 7.683 
47 1 14.664 9.300 -4.414 
48 1 7.466 -4.907 3.554 
49 1 6.951 -5.381 11.632 
50 1 -0.377 -14.459 4.295 
51 2 -0.530 -8.402 3.446 
52 2 14.589 -6.756 -7.294 
53 2 -8.026 9.483 13.550 
54 2 -13.834 2.625 -7.570 
55 2 -8.513 -7.197 12.473 
56 2 -2.465 -6.372 -12.940 
57 2 -7.359 2.249 -12.429 
58 2 -0.489 -0.715 2.819 
59 2 -6.013 -0.176 11.052 
60 2 -7.975 13.899 1.246 

Velocities

1 0.011 -0.018 0.004 
2 0.011 -0.012 0.029 
3 -0.029 -0.006 -0.001 
4 0.030 0.016 -0.012 
5 -0.011 -0.007 -0.008 
6 -0.025 -0.007 -0.008 
7 0.035 0.034 -0.018 
8 0.005 -0.008 -0.000 
9 0.002 0.006 -0.019 
10 0.017 0.002 -0.001 
11 0.008 -0.009 0.004 
12 0.020 0.010 0.004 
13 -0.002 -0.020 0.010 
14 0.022 0.007 0.019 
15 -0.019 -0.008 0.003 
16 0.017 -0.009 -0.008 
17 -0.024 0.015 -0.000 
18 -0.002 -0.032 0.012 
19 -0.023 -0.016 -0.020 
20 0.002 0.036 0.024 
21 0.021 -0.038 -0.017 
22 -0.006 0.002 -0.022 
23 -0.006 -0.002 0.020 
24 -0.012 0.023 0.004 
25 0.005 0.009 0.030 
26 0.007 0.013 -0.015 
27 -0.018 -0.016 -0.018 
28 0.003 0.034 0.013 
29 -0.004 0.012 0.002 
30 -0.005 0.007 0.008 
31 0.016 -0.009 0.017 
32 0.001 -0.008 0.001 
33 -0.024 -0.006 -0.018 
34 -0.001 -0.010 0.013 
35 0.018 0.006 0.005 
36 -0.000 0.033 0.019 
37 0.044 -0.022 0.008 
38 -0.021 -0.010 -0.006 
39 0.016 -0.005 0.011 
40 -0.020 0.017 -0.024 
41 0.015 -0.019 0.003 
42 -0.016 0.012 -0.004 
43 -0.020 -0.007 0.014 
44 0.001 0.008 0.008 
45 0.005 -0.007 -0.007 
46 -0.000 -0.008 0.013 
47 0.006 0.025 0.002 
48 -0.003 -0.002 0.012 
49 0.006 -0.006 0.012 
50 -0.012 0.013 0.004 
51 -0.010 0.006 0.014 
52 0.015 0.010 0.011 
53 -0.001 0.016 0.005 
54 0.014 -0.006 0.014 
55 0.008 -0.005 0.016 
56 -0.023 -0.036 -0.032 
57 0.012 -0.018 0.018 
58 -0.013 0.004 -0.010 
59 0.011 -0.008 0.028 
60 0.008 0.026 -0.026 
