# LAMMPS data file 

50 atoms
1 atom types

-45.195 45.195 xlo xhi
-45.195 45.195 ylo yhi
-45.195 45.195 zlo zhi

Atoms

1 1 1 0.000 -38.459 11.709 -27.185 
2 1 1 0.000 -31.204 12.676 -20.800 
3 1 1 0.000 39.477 -22.836 -22.606 
4 1 1 0.000 32.734 21.674 -0.231 
5 1 1 0.000 21.872 -29.299 -8.610 
6 1 1 0.000 -5.678 35.499 -3.616 
7 1 1 0.000 16.728 -33.735 -7.622 
8 1 1 0.000 8.787 21.583 -18.234 
9 1 1 0.000 8.924 -29.699 -12.595 
10 1 1 0.000 -34.303 41.329 -25.002 
11 1 1 0.000 21.289 18.905 -21.617 
12 1 1 0.000 43.757 -6.360 -33.951 
13 1 1 0.000 -17.027 -42.466 -4.728 
14 1 1 0.000 37.751 38.026 35.282 
15 1 1 0.000 -43.368 -36.504 -20.103 
16 1 1 0.000 -12.459 -32.604 37.835 
17 1 1 0.000 11.278 12.962 34.813 
18 1 1 0.000 -7.313 43.550 -12.058 
19 1 1 0.000 -41.257 -18.196 3.034 
20 1 1 0.000 -19.715 37.872 -2.081 
21 1 1 0.000 -8.243 20.743 10.517 
22 1 1 0.000 17.724 -22.688 13.177 
23 1 1 0.000 9.184 -37.017 -43.512 
24 1 1 0.000 29.545 -1.913 35.149 
25 1 1 0.000 0.819 43.173 -17.172 
26 1 1 0.000 -30.983 16.264 29.276 
27 1 1 0.000 -30.559 -18.695 -42.229 
28 1 1 0.000 19.298 29.487 30.207 
29 1 1 0.000 -36.499 40.459 20.230 
30 1 1 0.000 28.286 -38.408 -36.737 
31 1 1 0.000 -34.161 -37.123 -29.892 
32 1 1 0.000 -1.710 15.925 43.927 
33 1 1 0.000 34.165 -41.891 17.844 
34 1 1 0.000 23.105 31.398 -0.594 
35 1 1 0.000 -19.749 -1.900 -8.473 
36 1 1 0.000 41.064 35.826 -24.372 
37 1 1 0.000 -41.085 19.726 36.234 
38 1 1 0.000 31.455 -11.929 5.433 
39 1 1 0.000 -24.721 -31.653 0.579 
40 1 1 0.000 18.214 43.242 -43.726 
41 1 1 0.000 9.221 38.237 -19.027 
42 1 1 0.000 13.538 -14.998 -30.674 
43 1 1 0.000 25.699 21.227 0.127 
44 1 1 0.000 25.031 16.407 -43.296 
45 1 1 0.000 10.370 -21.851 27.658 
46 1 1 0.000 -18.738 18.607 4.367 
47 1 1 0.000 41.064 1.157 -26.002 
48 1 1 0.000 25.787 -8.532 -12.526 
49 1 1 0.000 29.786 7.434 -10.341 
50 1 1 0.000 18.607 43.672 1.170 

Velocities

1 0.001 -0.008 0.005 
2 0.003 -0.009 0.009 
3 0.019 -0.001 0.015 
4 0.017 -0.006 -0.014 
5 0.013 0.009 -0.006 
6 -0.001 0.009 0.014 
7 0.005 0.005 0.002 
8 -0.007 0.004 -0.006 
9 0.002 0.005 -0.006 
10 0.016 -0.013 0.006 
11 -0.013 0.016 0.009 
12 -0.005 -0.004 0.002 
13 -0.001 -0.013 -0.010 
14 -0.006 0.020 0.019 
15 -0.010 0.002 -0.005 
16 -0.000 0.003 0.003 
17 -0.011 0.009 0.001 
18 -0.005 -0.004 -0.007 
19 0.002 -0.000 -0.009 
20 0.010 -0.002 -0.006 
21 0.007 0.012 0.004 
22 0.011 -0.007 -0.007 
23 -0.001 0.009 -0.004 
24 -0.004 -0.010 0.002 
25 0.009 0.002 -0.013 
26 0.017 -0.003 0.005 
27 -0.019 0.008 0.017 
28 0.004 0.012 -0.021 
29 -0.009 -0.003 0.001 
30 -0.012 -0.006 0.003 
31 0.012 -0.012 0.014 
32 -0.012 0.004 0.006 
33 0.016 0.004 0.009 
34 -0.007 -0.010 -0.012 
35 -0.009 0.003 -0.006 
36 0.009 -0.002 0.007 
37 0.001 -0.003 0.005 
38 0.005 0.009 -0.005 
39 0.010 0.002 -0.004 
40 0.001 -0.009 0.011 
41 -0.007 -0.000 -0.006 
42 0.007 0.011 0.008 
43 0.008 0.003 0.014 
44 0.011 0.024 -0.012 
45 0.005 -0.012 -0.008 
46 0.007 0.011 -0.001 
47 0.005 -0.002 0.005 
48 -0.004 0.011 -0.006 
49 -0.005 -0.010 0.007 
50 -0.002 -0.010 0.000 
