# LAMMPS data file 

55 atoms
2 atom types

-15.000 15.000 xlo xhi
-15.000 15.000 ylo yhi
-15.000 15.000 zlo zhi

Atoms

1 1 2.363 12.434 3.041 
2 1 -10.258 6.341 5.731 
3 1 9.965 1.329 -4.085 
4 1 11.685 -9.904 8.627 
5 1 9.656 -5.561 13.462 
6 1 -2.559 4.075 5.026 
7 1 -6.682 -2.257 9.834 
8 1 -4.920 8.806 12.398 
9 1 10.171 9.952 4.824 
10 1 10.709 6.847 3.781 
11 1 -13.200 10.667 3.811 
12 1 -12.302 10.601 -13.072 
13 1 -5.649 4.791 -10.637 
14 1 -8.909 -10.665 8.749 
15 1 -14.459 -14.498 -5.390 
16 1 5.532 -1.392 8.928 
17 1 -9.463 -11.311 14.192 
18 1 3.429 3.670 -8.350 
19 1 5.245 9.747 -3.073 
20 1 -9.280 10.295 12.833 
21 1 0.575 3.059 -10.683 
22 1 -2.493 -6.075 -4.300 
23 1 10.091 11.431 1.792 
24 1 14.271 -10.330 12.700 
25 1 4.572 0.657 -5.987 
26 1 -14.206 6.376 -14.052 
27 1 -10.622 -8.700 -13.783 
28 1 6.806 12.486 -4.041 
29 1 12.628 -1.062 6.645 
30 1 -14.224 0.907 -3.843 
31 1 5.275 -8.722 -10.522 
32 1 9.915 14.661 4.631 
33 1 12.175 -10.974 1.274 
34 1 8.525 -13.414 -12.589 
35 1 5.134 -7.725 7.721 
36 1 -11.695 -13.402 11.974 
37 1 -3.684 14.424 -7.763 
38 1 6.927 2.801 11.232 
39 1 12.992 -5.365 -4.285 
40 1 -14.339 -11.183 -1.752 
41 1 6.396 11.537 14.965 
42 1 -12.854 5.153 7.437 
43 1 0.898 -4.684 12.395 
44 1 10.518 -0.237 3.068 
45 1 -4.444 -1.767 3.170 
46 1 -11.552 -14.314 3.735 
47 1 2.411 -6.015 14.220 
48 1 -2.152 -12.051 -10.103 
49 1 7.840 -2.125 11.122 
50 1 -13.993 -7.549 -5.053 
51 2 12.116 -13.412 -5.153 
52 2 7.111 1.667 7.743 
53 2 4.760 -5.142 13.295 
54 2 5.027 -5.713 -1.567 
55 2 12.289 3.312 3.693 

Velocities

1 -0.029 0.008 0.025 
2 0.031 -0.025 0.030 
3 -0.004 -0.025 -0.017 
4 0.000 -0.007 0.013 
5 0.012 0.012 -0.027 
6 -0.001 0.005 -0.014 
7 -0.023 -0.002 -0.004 
8 -0.020 -0.022 0.033 
9 0.018 0.006 0.000 
10 -0.018 -0.013 0.017 
11 0.009 -0.003 0.008 
12 -0.007 0.011 0.025 
13 -0.001 -0.020 0.005 
14 0.013 -0.010 -0.004 
15 0.003 -0.023 -0.028 
16 0.019 -0.009 0.003 
17 0.030 -0.011 0.003 
18 0.009 -0.023 0.010 
19 -0.020 0.014 -0.022 
20 0.010 -0.003 -0.012 
21 0.013 -0.002 0.012 
22 -0.010 0.005 0.026 
23 0.010 0.018 -0.005 
24 0.019 0.022 0.018 
25 0.014 -0.037 -0.010 
26 0.001 -0.026 -0.010 
27 -0.015 -0.030 0.007 
28 0.003 -0.007 -0.014 
29 -0.002 0.041 0.004 
30 0.005 0.005 0.028 
31 -0.019 0.017 -0.012 
32 0.002 0.002 -0.026 
33 0.016 -0.006 0.011 
34 -0.004 -0.005 -0.003 
35 0.017 0.011 -0.008 
36 0.014 0.008 0.020 
37 0.021 -0.014 0.005 
38 -0.004 -0.007 -0.033 
39 -0.013 -0.003 -0.000 
40 0.011 0.005 0.011 
41 0.002 0.018 -0.007 
42 0.027 0.017 0.013 
43 -0.009 0.003 0.011 
44 0.012 -0.018 -0.008 
45 -0.014 0.021 -0.005 
46 -0.006 -0.008 0.018 
47 -0.023 0.008 -0.003 
48 -0.024 0.000 0.014 
49 -0.007 -0.013 -0.001 
50 0.022 -0.017 -0.034 
51 0.009 -0.017 -0.009 
52 -0.000 0.009 0.011 
53 0.023 -0.004 -0.003 
54 -0.008 -0.007 -0.017 
55 -0.011 0.027 0.005 
