# LAMMPS data file 

60 atoms
2 atom types

-15.000 15.000 xlo xhi
-15.000 15.000 ylo yhi
-15.000 15.000 zlo zhi

Atoms

1 1 2.252 -12.240 -2.960 
2 1 -11.817 -12.891 14.590 
3 1 -2.783 -4.063 -5.263 
4 1 12.064 -7.920 -11.312 
5 1 6.100 -7.224 14.902 
6 1 14.216 1.320 -4.056 
7 1 0.751 11.095 14.549 
8 1 12.478 -10.491 14.696 
9 1 13.119 -8.289 -12.881 
10 1 13.474 -3.501 2.669 
11 1 -3.111 9.931 6.071 
12 1 0.008 13.839 5.647 
13 1 -14.447 -12.314 -1.962 
14 1 7.089 -3.181 -8.394 
15 1 1.598 -7.533 9.340 
16 1 -8.509 1.818 12.280 
17 1 -8.056 -1.246 -6.917 
18 1 -11.367 4.451 6.639 
19 1 9.745 10.544 8.679 
20 1 3.409 -4.603 -4.694 
21 1 -1.897 0.679 1.157 
22 1 -11.440 9.993 -11.684 
23 1 6.032 -0.418 12.637 
24 1 4.084 9.511 -4.680 
25 1 -1.335 -10.350 -3.096 
26 1 6.104 9.212 4.047 
27 1 -1.047 11.203 -8.229 
28 1 -4.891 -0.909 12.298 
29 1 -6.303 12.359 3.344 
30 1 7.162 10.585 2.226 
31 1 4.103 -1.773 -7.141 
32 1 -14.108 -0.556 8.630 
33 1 -8.775 -12.926 4.566 
34 1 -7.751 13.835 1.697 
35 1 12.408 0.983 -13.518 
36 1 0.859 8.658 4.412 
37 1 11.486 -5.397 -7.779 
38 1 7.222 11.663 4.324 
39 1 -2.195 -3.738 7.684 
40 1 -4.131 1.965 -5.512 
41 1 -2.580 14.935 -4.177 
42 1 8.200 2.804 -13.023 
43 1 -3.505 1.250 -12.245 
44 1 -9.256 -9.799 2.162 
45 1 -4.808 8.710 1.485 
46 1 0.312 -9.925 8.939 
47 1 -2.915 -2.481 10.726 
48 1 -5.128 -12.605 -9.325 
49 1 4.509 -13.086 -11.148 
50 1 -3.717 -2.202 -2.672 
51 2 10.575 0.891 -11.761 
52 2 12.047 -2.773 -1.768 
53 2 -3.673 -4.278 11.374 
54 2 -12.952 -5.245 11.907 
55 2 -3.774 13.300 1.708 
56 2 -13.573 3.514 -3.267 
57 2 -10.892 10.428 11.844 
58 2 -1.052 -13.676 -6.879 
59 2 4.309 -3.996 -13.307 
60 2 -3.402 -8.206 13.067 

Velocities

1 0.015 -0.006 0.010 
2 0.013 0.004 -0.013 
3 -0.007 0.004 -0.005 
4 0.045 0.004 -0.015 
5 0.011 0.035 0.008 
6 0.014 -0.016 0.017 
7 0.005 0.022 0.013 
8 0.011 0.018 -0.008 
9 -0.001 -0.020 0.006 
10 -0.006 -0.010 -0.010 
11 0.017 0.019 0.018 
12 -0.002 0.016 0.007 
13 -0.033 -0.006 -0.017 
14 0.022 0.004 0.006 
15 0.011 -0.002 0.012 
16 0.026 0.016 -0.009 
17 -0.002 -0.002 -0.033 
18 0.016 0.005 -0.014 
19 0.004 0.010 0.026 
20 -0.027 -0.016 -0.013 
21 -0.008 -0.009 0.007 
22 0.007 0.026 -0.030 
23 -0.005 0.004 -0.017 
24 -0.016 0.003 -0.022 
25 -0.013 0.018 -0.012 
26 0.027 -0.004 0.020 
27 0.028 0.016 0.029 
28 0.001 0.002 0.021 
29 0.010 -0.012 0.005 
30 -0.008 0.012 0.033 
31 0.014 0.008 0.026 
32 -0.004 -0.032 0.011 
33 0.007 0.005 0.009 
34 0.006 -0.008 -0.012 
35 0.017 -0.004 0.019 
36 0.018 -0.009 -0.006 
37 -0.022 -0.010 -0.005 
38 -0.019 -0.016 0.006 
39 -0.008 0.009 0.015 
40 -0.026 0.012 -0.006 
41 -0.011 -0.007 0.002 
42 -0.012 -0.005 0.001 
43 -0.025 0.001 0.012 
44 -0.004 -0.002 -0.011 
45 0.007 -0.031 0.017 
46 0.007 0.005 0.007 
47 -0.018 -0.010 0.004 
48 -0.032 -0.017 0.016 
49 -0.008 0.000 0.006 
50 0.027 0.008 -0.009 
51 -0.004 0.012 0.003 
52 0.024 0.006 0.023 
53 0.005 0.004 -0.009 
54 -0.015 0.001 -0.007 
55 0.018 0.021 -0.024 
56 -0.037 -0.036 -0.032 
57 -0.008 -0.018 0.018 
58 0.001 -0.005 0.007 
59 0.006 -0.008 0.030 
60 0.003 -0.011 0.009 
