# LAMMPS data file 

52 atoms
2 atom types

-15.000 15.000 xlo xhi
-15.000 15.000 ylo yhi
-15.000 15.000 zlo zhi

Atoms

1 1 -8.066 -7.308 -4.931 
2 1 -11.113 -1.519 0.546 
3 1 -0.192 0.157 -14.572 
4 1 8.370 4.669 7.119 
5 1 12.823 -4.979 2.699 
6 1 -4.410 -7.116 -8.544 
7 1 12.941 -3.966 10.802 
8 1 5.000 9.139 -6.100 
9 1 -7.668 6.255 5.840 
10 1 6.308 -5.450 7.626 
11 1 9.754 -4.850 9.002 
12 1 13.623 10.321 -2.552 
13 1 7.408 -8.499 2.001 
14 1 -14.184 -5.958 0.638 
15 1 2.810 -5.249 -2.174 
16 1 -7.143 -3.061 -9.649 
17 1 9.669 -6.609 -13.098 
18 1 14.810 1.613 13.169 
19 1 3.046 -6.802 -9.591 
20 1 -6.635 6.101 3.694 
21 1 -6.966 -4.115 -7.521 
22 1 -10.623 14.567 13.201 
23 1 11.867 -4.276 0.003 
24 1 2.578 3.611 -8.222 
25 1 11.871 11.146 5.300 
26 1 -9.746 -10.911 9.285 
27 1 9.758 8.418 -11.689 
28 1 -13.563 7.915 -13.006 
29 1 11.371 -1.310 -6.658 
30 1 -6.927 10.376 14.819 
31 1 13.541 -8.000 14.608 
32 1 -11.053 2.731 -1.237 
33 1 1.170 0.354 0.933 
34 1 -10.603 10.446 -11.527 
35 1 12.888 12.054 -3.926 
36 1 -11.542 7.853 6.790 
37 1 0.803 -6.506 -1.643 
38 1 0.041 -2.304 -8.480 
39 1 8.374 11.067 0.626 
40 1 -10.612 8.871 -1.103 
41 1 3.982 10.854 0.841 
42 1 6.775 -7.454 13.720 
43 1 11.795 5.942 8.929 
44 1 4.868 -2.837 -12.381 
45 1 13.832 -0.297 2.648 
46 1 -7.703 2.161 -0.238 
47 1 5.577 4.292 -2.143 
48 1 7.389 -3.015 4.431 
49 1 -11.076 -11.376 12.156 
50 1 12.860 -10.696 6.162 
51 2 -0.204 -12.818 -2.294 
52 2 3.883 -7.700 6.587 

Velocities

1 0.036 0.001 0.025 
2 0.030 -0.011 -0.024 
3 0.023 0.012 -0.011 
4 -0.021 0.003 -0.015 
5 0.009 -0.003 0.006 
6 -0.004 0.016 0.005 
7 0.015 0.003 0.001 
8 -0.006 0.008 0.005 
9 0.001 -0.009 -0.015 
10 -0.009 -0.002 -0.005 
11 -0.004 -0.024 -0.017 
12 0.001 0.023 0.002 
13 -0.018 0.004 -0.008 
14 0.001 0.006 0.003 
15 0.003 0.030 -0.012 
16 -0.001 0.015 -0.008 
17 -0.001 -0.000 -0.016 
18 0.017 -0.014 0.023 
19 0.017 0.013 -0.003 
20 -0.021 0.015 0.001 
21 -0.003 0.007 -0.012 
22 -0.015 -0.018 0.005 
23 0.000 -0.029 0.006 
24 0.019 0.026 -0.029 
25 0.020 -0.013 0.029 
26 0.012 0.018 0.007 
27 -0.016 -0.006 0.003 
28 -0.014 -0.010 0.001 
29 0.020 -0.029 0.008 
30 -0.020 0.006 0.011 
31 0.029 0.007 0.016 
32 -0.032 -0.001 -0.018 
33 0.009 0.010 0.027 
34 -0.006 0.001 0.024 
35 -0.017 0.004 -0.008 
36 0.009 0.013 0.017 
37 -0.008 -0.025 0.011 
38 -0.020 -0.024 -0.000 
39 0.029 -0.004 0.012 
40 0.014 0.017 -0.013 
41 -0.005 0.010 -0.000 
42 0.001 -0.004 -0.026 
43 0.030 0.007 0.008 
44 0.036 0.022 -0.010 
45 0.014 0.010 0.012 
46 0.009 0.059 0.009 
47 -0.004 0.027 0.016 
48 0.000 -0.025 0.006 
49 0.009 -0.002 0.003 
50 0.006 -0.000 -0.006 
51 -0.006 -0.001 -0.008 
52 -0.011 -0.022 0.005 
