# LAMMPS data file 

50 atoms
1 atom types

-43.562 43.562 xlo xhi
-43.562 43.562 ylo yhi
-43.562 43.562 zlo zhi

Atoms

1 1 1 0.000 -39.716 -24.076 -7.267 
2 1 1 0.000 -6.033 -18.929 18.947 
3 1 1 0.000 42.851 -19.983 28.004 
4 1 1 0.000 6.915 2.794 9.500 
5 1 1 0.000 -14.184 7.890 -21.425 
6 1 1 0.000 -7.742 -19.810 -24.158 
7 1 1 0.000 26.749 4.284 -8.542 
8 1 1 0.000 16.021 37.082 28.676 
9 1 1 0.000 24.539 -3.260 36.364 
10 1 1 0.000 23.651 -3.331 30.556 
11 1 1 0.000 -11.854 1.149 20.780 
12 1 1 0.000 -43.036 -16.926 -27.600 
13 1 1 0.000 -4.919 -5.494 20.654 
14 1 1 0.000 -8.811 18.573 34.332 
15 1 1 0.000 12.308 -23.642 39.328 
16 1 1 0.000 -20.666 -27.672 -30.317 
17 1 1 0.000 -28.429 41.541 29.743 
18 1 1 0.000 -9.192 -18.274 43.010 
19 1 1 0.000 -22.352 -17.456 -27.735 
20 1 1 0.000 22.328 22.946 -35.683 
21 1 1 0.000 11.903 -18.446 32.339 
22 1 1 0.000 -29.244 42.193 -25.678 
23 1 1 0.000 20.300 5.163 -35.509 
24 1 1 0.000 25.509 32.249 -38.529 
25 1 1 0.000 -3.973 0.534 3.679 
26 1 1 0.000 -3.738 15.908 26.430 
27 1 1 0.000 -27.702 25.372 26.667 
28 1 1 0.000 32.188 -14.527 23.614 
29 1 1 0.000 8.416 31.526 26.773 
30 1 1 0.000 -31.603 -37.196 -38.972 
31 1 1 0.000 32.399 -16.448 12.794 
32 1 1 0.000 21.128 37.226 -17.833 
33 1 1 0.000 13.041 -32.968 -14.108 
34 1 1 0.000 -20.917 -5.224 34.374 
35 1 1 0.000 1.544 21.194 -32.273 
36 1 1 0.000 -5.628 21.230 4.699 
37 1 1 0.000 14.400 -1.721 -4.976 
38 1 1 0.000 -31.979 20.324 -8.367 
39 1 1 0.000 14.133 -20.379 -24.572 
40 1 1 0.000 -8.421 2.851 -18.194 
41 1 1 0.000 -28.261 28.846 8.332 
42 1 1 0.000 26.955 33.339 6.078 
43 1 1 0.000 19.357 28.591 -19.408 
44 1 1 0.000 -24.847 23.801 -12.283 
45 1 1 0.000 27.143 22.296 -0.153 
46 1 1 0.000 22.606 -29.842 -3.118 
47 1 1 0.000 -0.740 -13.411 2.605 
48 1 1 0.000 37.163 36.090 -31.684 
49 1 1 0.000 28.242 38.801 34.176 
50 1 1 0.000 15.247 4.674 -6.285 

Velocities

1 0.001 -0.008 0.005 
2 0.003 -0.009 0.011 
3 0.020 -0.000 0.014 
4 0.015 -0.001 0.004 
5 0.013 0.008 -0.006 
6 0.004 0.010 0.013 
7 -0.001 0.006 0.004 
8 0.002 0.007 -0.010 
9 0.004 0.004 -0.008 
10 0.012 -0.013 -0.012 
11 -0.003 0.018 0.007 
12 -0.004 -0.003 0.003 
13 0.004 -0.013 0.009 
14 -0.006 0.020 0.020 
15 -0.009 0.002 -0.005 
16 -0.005 0.003 0.006 
17 -0.010 0.008 0.001 
18 -0.002 0.005 -0.005 
19 0.003 -0.001 -0.009 
20 0.010 -0.001 -0.006 
21 0.005 0.011 0.004 
22 0.011 -0.007 -0.008 
23 0.002 -0.010 0.002 
24 -0.004 -0.010 0.002 
25 -0.002 -0.009 -0.018 
26 0.006 -0.003 -0.001 
27 -0.019 0.009 0.016 
28 0.002 0.011 -0.020 
29 -0.009 -0.003 0.001 
30 0.009 0.026 0.002 
31 0.013 -0.018 0.007 
32 -0.011 0.003 0.006 
33 0.016 0.003 0.009 
34 -0.014 -0.007 -0.012 
35 -0.014 0.005 -0.005 
36 0.007 -0.007 0.003 
37 0.011 -0.005 0.011 
38 0.005 0.008 -0.005 
39 0.010 0.002 -0.005 
40 -0.004 0.010 0.006 
41 -0.009 0.000 0.009 
42 0.002 0.012 0.004 
43 -0.000 0.001 0.017 
44 -0.010 -0.000 -0.015 
45 0.009 -0.013 -0.003 
46 0.010 0.010 0.000 
47 0.007 -0.002 0.005 
48 0.004 0.008 -0.005 
49 0.002 -0.014 -0.014 
50 -0.002 -0.010 0.000 
