# LAMMPS data file 

60 atoms
2 atom types

-15.000 15.000 xlo xhi
-15.000 15.000 ylo yhi
-15.000 15.000 zlo zhi

Atoms

1 1 -12.814 0.284 2.438 
2 1 -10.815 -1.595 8.137 
3 1 5.783 -9.687 -14.705 
4 1 6.938 7.080 10.322 
5 1 2.873 -12.551 -1.061 
6 1 -2.772 -12.772 7.544 
7 1 5.847 3.243 9.619 
8 1 5.425 14.389 -13.391 
9 1 2.644 -5.658 5.413 
10 1 14.209 13.283 -13.381 
11 1 11.827 2.633 -14.097 
12 1 -13.996 -6.047 13.441 
13 1 -5.447 14.363 3.641 
14 1 -14.151 2.833 4.585 
15 1 -11.962 14.256 -1.027 
16 1 -3.276 5.221 -10.575 
17 1 6.216 -8.471 11.004 
18 1 -1.507 4.687 4.985 
19 1 -14.632 -14.959 -0.262 
20 1 -8.866 -9.226 12.334 
21 1 -3.879 -10.329 -5.398 
22 1 2.102 4.245 -13.753 
23 1 2.868 -14.692 -3.472 
24 1 10.052 14.967 -11.586 
25 1 -2.287 -0.934 13.222 
26 1 14.533 13.447 1.196 
27 1 -4.965 7.064 -10.940 
28 1 5.452 -7.493 -1.425 
29 1 -9.348 -10.542 -5.428 
30 1 13.131 -12.558 0.745 
31 1 -14.386 12.397 -10.635 
32 1 3.300 -9.083 1.595 
33 1 5.257 6.975 6.968 
34 1 9.817 -2.830 11.640 
35 1 -2.597 -2.850 5.675 
36 1 10.852 4.301 -4.249 
37 1 -11.764 -0.095 -12.381 
38 1 7.891 -7.137 13.362 
39 1 -10.482 5.555 11.909 
40 1 5.446 -12.114 12.992 
41 1 5.901 -11.366 -0.236 
42 1 1.395 -9.144 3.188 
43 1 5.489 -12.154 -14.118 
44 1 4.738 4.553 7.147 
45 1 1.986 -1.012 1.090 
46 1 -8.572 -6.001 1.926 
47 1 12.099 -2.082 -5.488 
48 1 9.582 -3.942 -2.076 
49 1 10.541 -2.507 4.207 
50 1 5.949 -11.053 5.054 
51 2 5.335 -8.834 -1.374 
52 2 7.780 -11.440 -12.345 
53 2 -7.390 2.241 11.552 
54 2 9.938 5.290 -14.068 
55 2 -12.120 -5.186 5.127 
56 2 7.738 9.901 1.241 
57 2 -12.373 10.242 9.425 
58 2 5.142 -2.022 7.349 
59 2 -10.749 3.343 -1.494 
60 2 -11.707 2.493 13.001 

Velocities

1 0.011 -0.017 0.004 
2 0.009 -0.012 0.029 
3 -0.023 0.011 -0.025 
4 0.030 0.016 -0.009 
5 -0.006 0.005 -0.002 
6 -0.023 -0.017 -0.011 
7 0.036 0.034 -0.018 
8 0.005 -0.009 -0.000 
9 0.006 0.005 -0.019 
10 0.017 0.002 -0.002 
11 0.008 -0.009 0.004 
12 -0.001 -0.015 0.017 
13 -0.003 -0.011 0.012 
14 0.022 0.007 0.019 
15 -0.013 -0.013 -0.002 
16 0.017 -0.012 -0.007 
17 -0.018 0.004 0.011 
18 -0.013 -0.028 0.031 
19 -0.003 0.012 -0.036 
20 0.014 0.031 0.007 
21 0.021 -0.037 -0.017 
22 -0.006 0.002 -0.022 
23 -0.011 0.006 0.022 
24 -0.022 0.024 -0.021 
25 0.006 0.011 0.029 
26 0.005 0.014 -0.011 
27 -0.020 -0.016 -0.017 
28 0.006 0.016 0.015 
29 -0.004 0.012 0.002 
30 -0.005 0.009 0.008 
31 0.016 -0.009 0.017 
32 0.003 -0.008 0.002 
33 -0.015 0.019 -0.012 
34 -0.001 -0.010 0.013 
35 0.020 0.014 0.002 
36 0.002 0.032 0.020 
37 0.043 -0.022 0.008 
38 -0.021 -0.015 0.013 
39 0.020 -0.002 0.011 
40 -0.004 0.008 -0.005 
41 0.012 -0.019 0.005 
42 -0.017 0.012 -0.003 
43 -0.017 -0.001 0.006 
44 -0.001 0.006 0.007 
45 -0.000 -0.006 -0.007 
46 -0.000 -0.008 0.013 
47 0.006 0.025 0.002 
48 -0.008 -0.001 0.014 
49 -0.016 -0.007 0.019 
50 -0.015 -0.015 -0.003 
51 -0.017 0.000 0.004 
52 0.015 0.011 0.011 
53 -0.001 0.015 0.003 
54 0.014 -0.006 0.014 
55 0.008 -0.004 0.016 
56 -0.023 -0.036 -0.031 
57 0.011 -0.017 0.018 
58 -0.012 0.002 -0.011 
59 0.010 -0.008 0.028 
60 0.008 0.025 -0.026 
