# LAMMPS data file 

52 atoms
2 atom types

-15.000 15.000 xlo xhi
-15.000 15.000 ylo yhi
-15.000 15.000 zlo zhi

Atoms

1 1 -13.173 -7.331 -0.731 
2 1 -11.251 9.229 -5.585 
3 1 7.017 -12.526 -3.353 
4 1 5.399 8.886 -3.912 
5 1 3.064 -12.932 -2.164 
6 1 -1.595 5.746 -10.287 
7 1 4.029 -11.284 -10.016 
8 1 5.152 -12.095 -12.039 
9 1 2.332 1.048 1.465 
10 1 13.445 -0.993 5.592 
11 1 11.432 -9.965 -4.961 
12 1 -13.950 6.282 11.737 
13 1 -5.280 -12.902 11.133 
14 1 14.546 -11.908 -2.122 
15 1 -11.270 1.486 3.739 
16 1 -4.091 14.744 1.223 
17 1 7.107 -5.880 2.126 
18 1 -0.850 13.156 6.669 
19 1 -14.403 3.092 -13.318 
20 1 -9.584 -5.268 10.909 
21 1 -4.925 14.908 -0.974 
22 1 2.396 2.605 8.123 
23 1 3.431 14.914 10.529 
24 1 11.066 6.221 -13.321 
25 1 -2.610 -8.723 6.384 
26 1 14.245 6.095 -13.291 
27 1 -4.004 14.454 -14.296 
28 1 5.193 -10.783 12.574 
29 1 -9.137 -8.427 3.017 
30 1 13.336 4.150 3.751 
31 1 14.816 14.973 -0.951 
32 1 3.106 13.743 -10.192 
33 1 6.123 -1.506 10.406 
34 1 9.866 12.654 3.421 
35 1 -3.595 7.511 1.578 
36 1 10.748 -6.963 11.988 
37 1 -13.982 -11.146 -4.548 
38 1 8.984 -12.938 -12.625 
39 1 -11.481 12.841 -4.601 
40 1 5.769 -8.470 -10.461 
41 1 5.241 6.065 11.736 
42 1 2.192 -2.308 1.802 
43 1 6.087 -3.547 -10.119 
44 1 4.711 2.674 -2.288 
45 1 2.006 1.016 -5.530 
46 1 -8.564 -6.375 0.295 
47 1 11.862 5.658 -11.560 
48 1 9.954 -12.469 1.392 
49 1 11.341 -10.529 7.489 
50 1 6.740 -9.881 10.976 
51 2 6.392 -12.299 5.570 
52 2 7.103 4.201 -5.275 

Velocities

1 0.033 -0.001 0.026 
2 0.030 -0.011 -0.023 
3 0.022 0.014 -0.011 
4 -0.002 0.016 0.024 
5 0.010 0.010 0.004 
6 -0.001 0.011 -0.018 
7 0.003 0.008 -0.012 
8 0.028 -0.023 0.011 
9 -0.025 0.029 0.016 
10 -0.008 -0.006 0.004 
11 -0.002 -0.023 -0.017 
12 -0.011 0.035 0.033 
13 -0.017 0.004 -0.009 
14 -0.000 0.006 0.005 
15 -0.018 0.015 0.002 
16 -0.003 0.008 -0.009 
17 0.004 -0.001 -0.015 
18 0.017 -0.003 -0.011 
19 0.012 0.021 0.007 
20 0.019 -0.012 -0.013 
21 -0.002 0.015 -0.006 
22 -0.007 -0.018 0.004 
23 0.011 -0.013 -0.027 
24 0.030 -0.005 0.009 
25 -0.034 0.014 0.030 
26 0.007 0.020 -0.037 
27 -0.016 -0.006 0.002 
28 -0.022 -0.011 0.006 
29 0.021 -0.021 0.024 
30 -0.020 0.006 0.011 
31 0.029 0.006 0.016 
32 -0.012 -0.018 -0.022 
33 -0.016 0.005 -0.010 
34 0.016 -0.004 0.012 
35 0.002 -0.005 0.009 
36 0.008 0.017 -0.009 
37 0.018 0.004 -0.008 
38 0.002 -0.015 0.019 
39 -0.012 -0.001 -0.010 
40 0.013 0.019 0.013 
41 0.002 0.002 0.031 
42 0.020 0.043 -0.021 
43 0.008 -0.020 -0.014 
44 0.013 0.019 -0.002 
45 0.011 -0.004 0.008 
46 -0.008 0.019 -0.010 
47 -0.008 -0.018 0.012 
48 -0.003 -0.017 0.001 
49 0.007 -0.001 0.005 
50 0.007 -0.000 -0.005 
51 -0.007 -0.000 -0.008 
52 0.013 0.006 0.025 
