# LAMMPS data file 

50 atoms
1 atom types

-50.000 50.000 xlo xhi
-50.000 50.000 ylo yhi
-50.000 50.000 zlo zhi

Atoms

1 1 1 0.000 -43.910 21.308 -35.096 
2 1 1 0.000 -37.503 23.676 -32.935 
3 1 1 0.000 23.389 -24.436 -40.996 
4 1 1 0.000 17.996 30.762 14.002 
5 1 1 0.000 10.213 -41.755 -2.435 
6 1 1 0.000 -5.316 29.618 -18.616 
7 1 1 0.000 13.428 -43.107 -11.176 
8 1 1 0.000 17.174 19.154 -13.040 
9 1 1 0.000 7.774 -37.612 -7.214 
10 1 1 0.000 44.818 -40.317 -34.289 
11 1 1 0.000 38.105 3.495 -33.386 
12 1 1 0.000 -46.501 -3.310 -40.129 
13 1 1 0.000 -17.600 -33.216 4.883 
14 1 1 0.000 48.485 20.941 18.641 
15 1 1 0.000 -37.565 -43.005 -16.538 
16 1 1 0.000 -13.636 -39.692 39.123 
17 1 1 0.000 23.689 4.954 37.110 
18 1 1 0.000 -2.834 49.146 -7.072 
19 1 1 0.000 -48.010 -19.600 12.462 
20 1 1 0.000 -31.946 43.853 4.076 
21 1 1 0.000 -16.417 10.307 7.086 
22 1 1 0.000 7.985 -17.561 22.231 
23 1 1 0.000 11.436 49.693 -44.392 
24 1 1 0.000 36.885 8.682 36.364 
25 1 1 0.000 -8.701 49.713 -3.246 
26 1 1 0.000 47.484 20.738 27.076 
27 1 1 0.000 -13.347 -29.077 35.095 
28 1 1 0.000 17.311 20.316 -44.403 
29 1 1 0.000 -30.457 48.179 21.281 
30 1 1 0.000 44.453 -35.944 -44.305 
31 1 1 0.000 49.388 -28.089 -47.654 
32 1 1 0.000 10.352 13.834 41.914 
33 1 1 0.000 20.411 49.911 10.055 
34 1 1 0.000 32.885 45.809 12.503 
35 1 1 0.000 -11.983 -5.019 -3.169 
36 1 1 0.000 35.826 42.178 -33.973 
37 1 1 0.000 -46.606 25.038 34.685 
38 1 1 0.000 29.946 -23.209 11.403 
39 1 1 0.000 -38.269 -37.153 5.261 
40 1 1 0.000 19.231 -43.128 39.960 
41 1 1 0.000 17.471 42.803 -15.161 
42 1 1 0.000 7.305 -28.234 -42.085 
43 1 1 0.000 20.289 20.215 -15.337 
44 1 1 0.000 15.704 -7.694 -34.871 
45 1 1 0.000 6.686 -11.825 39.120 
46 1 1 0.000 -28.548 8.914 6.007 
47 1 1 0.000 39.541 3.386 -33.729 
48 1 1 0.000 33.180 -21.249 -7.626 
49 1 1 0.000 37.803 18.859 -18.434 
50 1 1 0.000 22.467 -41.564 0.982 

Velocities

1 0.001 -0.008 0.005 
2 0.003 -0.009 0.009 
3 0.019 -0.001 0.015 
4 0.017 -0.006 -0.013 
5 0.013 0.008 -0.006 
6 -0.001 0.009 0.014 
7 0.005 0.006 0.003 
8 -0.001 0.006 -0.010 
9 0.002 0.005 -0.007 
10 0.016 -0.013 0.006 
11 -0.014 0.017 0.009 
12 -0.005 -0.003 0.002 
13 -0.001 -0.013 -0.009 
14 -0.006 0.020 0.019 
15 -0.010 0.002 -0.005 
16 -0.000 0.003 0.003 
17 -0.010 0.009 0.001 
18 -0.002 0.004 -0.005 
19 0.002 -0.000 -0.009 
20 0.009 -0.002 -0.006 
21 0.007 0.012 0.004 
22 0.011 -0.007 -0.007 
23 -0.001 0.009 -0.004 
24 -0.004 -0.010 0.002 
25 0.006 -0.007 -0.015 
26 0.017 -0.003 0.005 
27 -0.019 0.008 0.017 
28 0.004 0.012 -0.021 
29 -0.009 -0.003 0.001 
30 -0.012 -0.006 0.003 
31 0.012 -0.012 0.014 
32 -0.011 0.004 0.006 
33 0.016 0.004 0.009 
34 -0.007 -0.010 -0.012 
35 -0.009 0.003 -0.006 
36 0.009 -0.002 0.007 
37 0.001 -0.003 0.005 
38 0.005 0.009 -0.005 
39 0.010 0.002 -0.004 
40 0.001 -0.008 0.011 
41 -0.007 -0.000 -0.006 
42 0.007 0.011 0.008 
43 0.001 0.001 0.018 
44 0.011 0.024 -0.012 
45 0.004 -0.012 -0.008 
46 0.007 0.011 -0.001 
47 0.006 -0.002 0.004 
48 -0.004 0.011 -0.006 
49 -0.005 -0.010 0.007 
50 -0.002 -0.009 0.000 
