# LAMMPS data file 

55 atoms
2 atom types

-15.000 15.000 xlo xhi
-15.000 15.000 ylo yhi
-15.000 15.000 zlo zhi

Atoms

1 1 -13.173 8.886 -10.016 
2 1 -11.251 -12.932 -12.039 
3 1 7.017 5.746 1.465 
4 1 5.399 -11.284 5.592 
5 1 3.064 -12.095 -4.961 
6 1 -1.595 1.048 11.737 
7 1 4.029 -0.993 11.133 
8 1 5.152 -9.965 -2.122 
9 1 2.332 6.282 3.739 
10 1 13.445 -12.902 1.223 
11 1 11.432 -11.908 2.126 
12 1 -13.950 1.486 6.669 
13 1 -5.280 14.744 -13.318 
14 1 14.546 -5.880 10.909 
15 1 -11.270 13.156 -0.974 
16 1 -4.091 3.092 8.123 
17 1 7.107 -5.268 10.529 
18 1 -0.850 14.908 -13.321 
19 1 -14.403 2.605 6.384 
20 1 -9.584 14.914 -13.291 
21 1 -4.925 6.221 -14.296 
22 1 2.396 -8.723 12.574 
23 1 3.431 6.095 3.017 
24 1 11.066 14.454 3.751 
25 1 -2.610 -10.783 -0.951 
26 1 14.245 -8.427 -10.192 
27 1 -4.004 4.150 10.406 
28 1 5.193 14.973 3.421 
29 1 -9.137 13.743 1.578 
30 1 13.336 -1.506 11.988 
31 1 14.816 12.654 -4.548 
32 1 3.106 7.511 -12.625 
33 1 6.123 -6.963 -4.601 
34 1 9.866 -11.146 -10.461 
35 1 -3.595 -12.938 11.736 
36 1 10.748 12.841 1.802 
37 1 -13.982 -8.470 -10.119 
38 1 8.984 6.065 -2.288 
39 1 -11.481 -2.308 -5.530 
40 1 5.769 -3.547 0.295 
41 1 5.241 2.674 -11.560 
42 1 2.192 1.016 1.392 
43 1 6.087 -6.375 7.489 
44 1 4.711 5.658 10.976 
45 1 2.006 -12.469 5.570 
46 1 -8.564 -10.529 -5.275 
47 1 11.862 -9.881 -12.770 
48 1 9.954 -12.299 12.745 
49 1 11.341 4.201 11.329 
50 1 6.740 -0.731 13.712 
51 2 6.392 -5.585 -0.145 
52 2 7.103 -3.353 3.565 
53 2 -7.331 -3.912 14.691 
54 2 9.229 -2.164 6.724 
55 2 -12.526 -10.287 1.453 

Velocities

1 -1.434 0.321 1.306 
2 -1.094 -0.498 1.428 
3 1.029 0.343 -0.398 
4 1.080 0.438 0.156 
5 1.016 1.042 0.790 
6 -0.120 0.269 -0.472 
7 0.024 -0.127 0.384 
8 -1.379 -1.539 -0.476 
9 0.496 0.548 0.209 
10 -0.290 -1.567 -0.217 
11 0.641 -0.738 0.012 
12 -0.326 1.974 0.438 
13 -0.035 -0.993 0.269 
14 0.656 -0.483 -0.218 
15 -0.475 0.419 -0.412 
16 1.038 -0.474 -0.202 
17 1.102 -0.671 1.004 
18 0.441 -1.115 0.496 
19 -0.419 -0.256 -0.330 
20 -0.035 -0.601 -0.393 
21 0.255 -1.025 -0.417 
22 -0.488 0.263 1.307 
23 0.744 -0.078 0.329 
24 -0.158 0.107 0.993 
25 0.710 -1.847 -0.500 
26 1.568 -1.791 0.416 
27 -0.430 -0.496 1.432 
28 0.162 -0.241 -0.773 
29 -1.077 1.306 0.792 
30 0.242 0.246 1.412 
31 -0.956 0.860 -0.581 
32 1.015 1.074 -1.258 
33 0.381 -0.474 0.562 
34 -0.250 -0.340 -0.106 
35 0.866 0.516 -0.403 
36 0.827 0.244 1.099 
37 0.275 -0.952 0.080 
38 -0.197 -0.327 -1.645 
39 -0.532 -0.325 0.139 
40 0.427 0.606 0.353 
41 0.114 0.881 -0.346 
42 2.065 -1.238 0.118 
43 -0.581 0.137 0.350 
44 0.578 -0.176 -1.309 
45 -0.770 1.040 -0.236 
46 -0.286 -0.368 0.899 
47 -0.637 0.536 -1.015 
48 -1.209 0.019 0.705 
49 -0.347 -0.626 -0.018 
50 -0.180 -0.656 -2.371 
51 0.796 -0.761 -0.518 
52 0.058 0.667 0.194 
53 1.201 -0.114 -0.126 
54 -0.404 -0.377 -0.813 
55 -0.512 1.353 0.222 
