# LAMMPS data file 

60 atoms
2 atom types

-15.000 15.000 xlo xhi
-15.000 15.000 ylo yhi
-15.000 15.000 zlo zhi

Atoms

1 1 -13.173 1.048 2.126 
2 1 -11.251 -0.993 6.669 
3 1 7.017 -9.965 -13.318 
4 1 5.399 6.282 10.909 
5 1 3.064 -12.902 -0.974 
6 1 -1.595 -11.908 8.123 
7 1 4.029 1.486 10.529 
8 1 5.152 14.744 -13.321 
9 1 2.332 -5.880 6.384 
10 1 13.445 13.156 -13.291 
11 1 11.432 3.092 -14.296 
12 1 -13.950 -5.268 12.574 
13 1 -5.280 14.908 3.017 
14 1 14.546 2.605 3.751 
15 1 -11.270 14.914 -0.951 
16 1 -4.091 6.221 -10.192 
17 1 7.107 -8.723 10.406 
18 1 -0.850 6.095 3.421 
19 1 -14.403 14.454 1.578 
20 1 -9.584 -10.783 11.988 
21 1 -4.925 -8.427 -4.548 
22 1 2.396 4.150 -12.625 
23 1 3.431 14.973 -4.601 
24 1 11.066 13.743 -10.461 
25 1 -2.610 -1.506 11.736 
26 1 14.245 12.654 1.802 
27 1 -4.004 7.511 -10.119 
28 1 5.193 -6.963 -2.288 
29 1 -9.137 -11.146 -5.530 
30 1 13.336 -12.938 0.295 
31 1 14.816 12.841 -11.560 
32 1 3.106 -8.470 1.392 
33 1 6.123 6.065 7.489 
34 1 9.866 -2.308 10.976 
35 1 -3.595 -3.547 5.570 
36 1 10.748 2.674 -5.275 
37 1 -13.982 1.016 -12.770 
38 1 8.984 -6.375 12.745 
39 1 -11.481 5.658 11.329 
40 1 5.769 -12.469 13.712 
41 1 5.241 -10.529 -0.145 
42 1 2.192 -9.881 3.565 
43 1 6.087 -12.299 14.691 
44 1 4.711 4.201 6.724 
45 1 2.006 -0.731 1.453 
46 1 -8.564 -5.585 1.274 
47 1 11.862 -3.353 -5.691 
48 1 9.954 -3.912 -2.708 
49 1 11.341 -2.164 3.231 
50 1 6.740 -10.287 5.211 
51 2 6.392 -10.016 -1.817 
52 2 7.103 -12.039 -12.647 
53 2 -7.331 1.465 11.416 
54 2 9.229 5.592 -14.808 
55 2 -12.526 -4.961 4.298 
56 2 8.886 11.737 2.839 
57 2 -12.932 11.133 8.506 
58 2 5.746 -2.122 7.887 
59 2 -11.284 3.739 -2.907 
60 2 -12.095 1.223 14.315 

Velocities

1 0.011 -0.018 0.003 
2 0.009 -0.012 0.029 
3 -0.023 0.011 -0.026 
4 0.030 0.016 -0.009 
5 -0.006 0.004 -0.002 
6 -0.023 -0.017 -0.011 
7 0.036 0.034 -0.017 
8 0.004 -0.010 -0.000 
9 0.006 0.005 -0.019 
10 0.016 0.002 -0.003 
11 0.008 -0.009 0.004 
12 -0.001 -0.015 0.017 
13 -0.003 -0.011 0.012 
14 0.021 0.008 0.019 
15 -0.013 -0.013 -0.002 
16 0.016 -0.006 -0.007 
17 -0.018 0.004 0.011 
18 -0.013 -0.028 0.031 
19 -0.005 0.009 -0.034 
20 0.014 0.031 0.007 
21 0.021 -0.037 -0.017 
22 -0.006 0.002 -0.022 
23 -0.011 0.006 0.022 
24 -0.022 0.024 -0.021 
25 0.006 0.011 0.029 
26 0.006 0.016 -0.012 
27 -0.019 -0.022 -0.017 
28 0.005 -0.010 0.016 
29 -0.004 0.012 0.002 
30 -0.005 0.009 0.008 
31 0.017 -0.009 0.018 
32 0.004 -0.008 0.002 
33 -0.015 0.020 -0.012 
34 -0.001 -0.010 0.013 
35 0.020 0.014 0.002 
36 0.002 0.032 0.020 
37 0.043 -0.022 0.008 
38 -0.021 -0.014 0.013 
39 0.020 -0.002 0.011 
40 -0.004 0.008 -0.008 
41 0.020 -0.010 -0.008 
42 -0.018 0.012 -0.003 
43 -0.017 0.001 0.008 
44 -0.001 0.005 0.007 
45 -0.000 -0.005 -0.007 
46 -0.000 -0.008 0.013 
47 0.006 0.025 0.002 
48 -0.008 -0.001 0.014 
49 -0.016 -0.007 0.019 
50 -0.015 -0.015 -0.003 
51 -0.023 0.018 0.014 
52 0.016 0.010 0.013 
53 -0.001 0.015 0.003 
54 0.014 -0.005 0.014 
55 0.008 -0.004 0.016 
56 -0.023 -0.036 -0.031 
57 0.011 -0.017 0.018 
58 -0.012 0.002 -0.011 
59 0.010 -0.008 0.028 
60 0.008 0.025 -0.026 
