# LAMMPS data file 

10 atoms
2 atom types

-15.000 15.000 xlo xhi
-15.000 15.000 ylo yhi
-15.000 15.000 zlo zhi

Atoms

1 1 1 0.000 -13.173 11.432 -4.925 
2 1 1 0.000 -11.251 -13.950 2.396 
3 1 1 0.000 7.017 -5.280 3.431 
4 1 1 0.000 5.399 14.546 11.066 
5 1 1 0.000 3.064 -11.270 -2.610 
6 1 2 0.000 -1.595 -4.091 14.245 
7 1 2 0.000 4.029 7.107 -4.004 
8 1 2 0.000 5.152 -0.850 5.193 
9 1 2 0.000 2.332 -14.403 -9.137 
10 1 2 0.000 13.445 -9.584 13.336 

Velocities

1 0.013 0.008 0.015 
2 -0.005 0.005 -0.011 
3 0.012 0.028 0.015 
4 0.020 -0.022 0.005 
5 0.006 0.009 0.015 
6 0.014 0.012 -0.009 
7 0.003 -0.007 -0.032 
8 0.034 0.008 -0.013 
9 0.003 0.000 0.006 
10 -0.002 -0.025 0.015 
