# LAMMPS data file 

55 atoms
2 atom types

-15.000 15.000 xlo xhi
-15.000 15.000 ylo yhi
-15.000 15.000 zlo zhi

Atoms

1 1 -13.173 8.886 -10.016 
2 1 -11.251 -12.932 -12.039 
3 1 7.017 5.746 1.465 
4 1 5.399 -11.284 5.592 
5 1 3.064 -12.095 -4.961 
6 1 -1.595 1.048 11.737 
7 1 4.029 -0.993 11.133 
8 1 5.152 -9.965 -2.122 
9 1 2.332 6.282 3.739 
10 1 13.445 -12.902 1.223 
11 1 11.432 -11.908 2.126 
12 1 -13.950 1.486 6.669 
13 1 -5.280 14.744 -13.318 
14 1 14.546 -5.880 10.909 
15 1 -11.270 13.156 -0.974 
16 1 -4.091 3.092 8.123 
17 1 7.107 -5.268 10.529 
18 1 -0.850 14.908 -13.321 
19 1 -14.403 2.605 6.384 
20 1 -9.584 14.914 -13.291 
21 1 -4.925 6.221 -14.296 
22 1 2.396 -8.723 12.574 
23 1 3.431 6.095 3.017 
24 1 11.066 14.454 3.751 
25 1 -2.610 -10.783 -0.951 
26 1 14.245 -8.427 -10.192 
27 1 -4.004 4.150 10.406 
28 1 5.193 14.973 3.421 
29 1 -9.137 13.743 1.578 
30 1 13.336 -1.506 11.988 
31 1 14.816 12.654 -4.548 
32 1 3.106 7.511 -12.625 
33 1 6.123 -6.963 -4.601 
34 1 9.866 -11.146 -10.461 
35 1 -3.595 -12.938 11.736 
36 1 10.748 12.841 1.802 
37 1 -13.982 -8.470 -10.119 
38 1 8.984 6.065 -2.288 
39 1 -11.481 -2.308 -5.530 
40 1 5.769 -3.547 0.295 
41 1 5.241 2.674 -11.560 
42 1 2.192 1.016 1.392 
43 1 6.087 -6.375 7.489 
44 1 4.711 5.658 10.976 
45 1 2.006 -12.469 5.570 
46 1 -8.564 -10.529 -5.275 
47 1 11.862 -9.881 -12.770 
48 1 9.954 -12.299 12.745 
49 1 11.341 4.201 11.329 
50 1 6.740 -0.731 13.712 
51 2 6.392 -5.585 -0.145 
52 2 7.103 -3.353 3.565 
53 2 -7.331 -3.912 14.691 
54 2 9.229 -2.164 6.724 
55 2 -12.526 -10.287 1.453 

Velocities

1 -0.029 0.006 0.026 
2 -0.022 -0.010 0.028 
3 0.020 0.007 -0.008 
4 0.021 0.009 0.003 
5 0.020 0.021 0.016 
6 -0.002 0.005 -0.009 
7 0.000 -0.003 0.008 
8 -0.027 -0.031 -0.009 
9 0.010 0.011 0.004 
10 -0.006 -0.031 -0.004 
11 0.013 -0.015 0.000 
12 -0.006 0.039 0.009 
13 -0.001 -0.020 0.005 
14 0.013 -0.010 -0.004 
15 -0.009 0.008 -0.008 
16 0.021 -0.009 -0.004 
17 0.022 -0.013 0.020 
18 0.009 -0.022 0.010 
19 -0.008 -0.005 -0.007 
20 -0.001 -0.012 -0.008 
21 0.005 -0.020 -0.008 
22 -0.010 0.005 0.026 
23 0.015 -0.002 0.007 
24 -0.003 0.002 0.020 
25 0.014 -0.037 -0.010 
26 0.031 -0.036 0.008 
27 -0.009 -0.010 0.028 
28 0.003 -0.005 -0.015 
29 -0.021 0.026 0.016 
30 0.005 0.005 0.028 
31 -0.019 0.017 -0.012 
32 0.020 0.021 -0.025 
33 0.008 -0.009 0.011 
34 -0.005 -0.007 -0.002 
35 0.017 0.010 -0.008 
36 0.016 0.005 0.022 
37 0.005 -0.019 0.002 
38 -0.004 -0.007 -0.033 
39 -0.011 -0.006 0.003 
40 0.008 0.012 0.007 
41 0.002 0.017 -0.007 
42 0.041 -0.025 0.002 
43 -0.012 0.003 0.007 
44 0.011 -0.003 -0.026 
45 -0.015 0.021 -0.005 
46 -0.006 -0.007 0.018 
47 -0.013 0.011 -0.020 
48 -0.024 0.000 0.014 
49 -0.007 -0.012 -0.000 
50 -0.004 -0.013 -0.047 
51 0.016 -0.015 -0.010 
52 0.001 0.013 0.004 
53 0.024 -0.002 -0.002 
54 -0.008 -0.008 -0.016 
55 -0.010 0.027 0.004 
