# LAMMPS data file 

50 atoms
1 atom types

-5.000 5.000 xlo xhi
-5.000 5.000 ylo yhi
-5.000 5.000 zlo zhi

Atoms

1 1 1 0.000 -4.391 2.131 -3.510 
2 1 1 0.000 -3.750 2.368 -3.294 
3 1 1 0.000 2.339 -2.444 -4.100 
4 1 1 0.000 1.800 3.076 1.400 
5 1 1 0.000 1.021 -4.175 -0.244 
6 1 1 0.000 -0.532 2.962 -1.862 
7 1 1 0.000 1.343 -4.311 -1.118 
8 1 1 0.000 1.717 1.915 -1.304 
9 1 1 0.000 0.777 -3.761 -0.721 
10 1 1 0.000 4.482 -4.032 -3.429 
11 1 1 0.000 3.811 0.349 -3.339 
12 1 1 0.000 -4.650 -0.331 -4.013 
13 1 1 0.000 -1.760 -3.322 0.488 
14 1 1 0.000 4.849 2.094 1.864 
15 1 1 0.000 -3.757 -4.301 -1.654 
16 1 1 0.000 -1.364 -3.969 3.912 
17 1 1 0.000 2.369 0.495 3.711 
18 1 1 0.000 -0.283 4.915 -0.707 
19 1 1 0.000 -4.801 -1.960 1.246 
20 1 1 0.000 -3.195 4.385 0.408 
21 1 1 0.000 -1.642 1.031 0.709 
22 1 1 0.000 0.799 -1.756 2.223 
23 1 1 0.000 1.144 4.969 -4.439 
24 1 1 0.000 3.689 0.868 3.636 
25 1 1 0.000 -0.870 4.971 -0.325 
26 1 1 0.000 4.748 2.074 2.708 
27 1 1 0.000 -1.335 -2.908 3.510 
28 1 1 0.000 1.731 2.032 -4.440 
29 1 1 0.000 -3.046 4.818 2.128 
30 1 1 0.000 4.445 -3.594 -4.430 
31 1 1 0.000 4.939 -2.809 -4.765 
32 1 1 0.000 1.035 1.383 4.191 
33 1 1 0.000 2.041 4.991 1.006 
34 1 1 0.000 3.289 4.581 1.250 
35 1 1 0.000 -1.198 -0.502 -0.317 
36 1 1 0.000 3.583 4.218 -3.397 
37 1 1 0.000 -4.661 2.504 3.469 
38 1 1 0.000 2.995 -2.321 1.140 
39 1 1 0.000 -3.827 -3.715 0.526 
40 1 1 0.000 1.923 -4.313 3.996 
41 1 1 0.000 1.747 4.280 -1.516 
42 1 1 0.000 0.731 -2.823 -4.208 
43 1 1 0.000 2.029 2.022 -1.534 
44 1 1 0.000 1.570 -0.769 -3.487 
45 1 1 0.000 0.669 -1.182 3.912 
46 1 1 0.000 -2.855 0.891 0.601 
47 1 1 0.000 3.954 0.339 -3.373 
48 1 1 0.000 3.318 -2.125 -0.763 
49 1 1 0.000 3.780 1.886 -1.843 
50 1 1 0.000 2.247 -4.156 0.098 

Velocities

1 0.001 -0.008 0.005 
2 0.003 -0.009 0.009 
3 0.019 -0.001 0.015 
4 0.017 -0.006 -0.013 
5 0.013 0.008 -0.006 
6 -0.001 0.009 0.014 
7 0.005 0.006 0.003 
8 -0.001 0.006 -0.010 
9 0.002 0.005 -0.007 
10 0.016 -0.013 0.006 
11 -0.014 0.017 0.009 
12 -0.005 -0.003 0.002 
13 -0.001 -0.013 -0.009 
14 -0.006 0.020 0.019 
15 -0.010 0.002 -0.005 
16 -0.000 0.003 0.003 
17 -0.010 0.009 0.001 
18 -0.002 0.004 -0.005 
19 0.002 -0.000 -0.009 
20 0.009 -0.002 -0.006 
21 0.007 0.012 0.004 
22 0.011 -0.007 -0.007 
23 -0.001 0.009 -0.004 
24 -0.004 -0.010 0.002 
25 0.006 -0.007 -0.015 
26 0.017 -0.003 0.005 
27 -0.019 0.008 0.017 
28 0.004 0.012 -0.021 
29 -0.009 -0.003 0.001 
30 -0.012 -0.006 0.003 
31 0.012 -0.012 0.014 
32 -0.011 0.004 0.006 
33 0.016 0.004 0.009 
34 -0.007 -0.010 -0.012 
35 -0.009 0.003 -0.006 
36 0.009 -0.002 0.007 
37 0.001 -0.003 0.005 
38 0.005 0.009 -0.005 
39 0.010 0.002 -0.004 
40 0.001 -0.008 0.011 
41 -0.007 -0.000 -0.006 
42 0.007 0.011 0.008 
43 0.001 0.001 0.018 
44 0.011 0.024 -0.012 
45 0.004 -0.012 -0.008 
46 0.007 0.011 -0.001 
47 0.006 -0.002 0.004 
48 -0.004 0.011 -0.006 
49 -0.005 -0.010 0.007 
50 -0.002 -0.009 0.000 
