# LAMMPS data file

200 atoms
1 atom types

-15.145 15.145 xlo xhi
-15.145 15.145 ylo yhi
-15.145 15.145 zlo zhi

Atoms

1 1 -9.281 -9.529 6.839 
2 1 11.446 12.912 7.057 
3 1 6.171 -13.386 -0.960 
4 1 -7.547 4.170 10.214 
5 1 -13.689 -8.929 10.583 
6 1 -13.768 -2.132 -0.953 
7 1 -2.514 0.730 -9.461 
8 1 -3.008 4.522 13.130 
9 1 -11.361 3.604 4.644 
10 1 -7.234 4.211 5.723 
11 1 13.620 -5.521 10.139 
12 1 7.544 -14.579 9.183 
13 1 5.340 13.343 -1.650 
14 1 -5.879 -7.636 -2.282 
15 1 8.595 -10.647 8.114 
16 1 -7.964 12.786 -0.149 
17 1 0.304 -3.067 -0.041 
18 1 9.911 11.554 -13.147 
19 1 -2.766 10.617 2.421 
20 1 -12.299 -11.371 -10.378 
21 1 -14.241 -4.184 6.431 
22 1 -3.457 4.487 9.332 
23 1 12.779 -1.480 -7.491 
24 1 -10.302 -10.798 1.138 
25 1 -13.615 -6.437 -5.753 
26 1 -6.838 14.627 9.046 
27 1 11.023 -7.740 9.051 
28 1 1.084 15.070 -1.353 
29 1 7.936 11.003 5.786 
30 1 -8.036 -11.765 -8.879 
31 1 -14.420 -11.374 2.909 
32 1 13.447 7.035 14.435 
33 1 -15.134 13.350 -8.036 
34 1 10.910 7.473 -4.143 
35 1 -13.434 4.962 -7.388 
36 1 -12.586 14.971 6.189 
37 1 15.108 2.051 -15.135 
38 1 2.280 13.783 -12.303 
39 1 14.874 4.658 -10.499 
40 1 5.778 1.497 -6.448 
41 1 -10.655 -8.459 -2.616 
42 1 1.330 -7.758 10.197 
43 1 2.720 0.015 10.680 
44 1 -2.339 -14.406 -2.933 
45 1 -6.734 13.347 -11.871 
46 1 10.970 4.076 -10.071 
47 1 -1.017 -11.350 -8.888 
48 1 -11.522 12.275 13.273 
49 1 -4.685 -14.131 4.166 
50 1 6.851 -2.044 -14.389 
51 1 5.152 9.992 -4.504 
52 1 8.325 3.542 -8.264 
53 1 3.061 -4.099 -7.408 
54 1 -11.998 12.275 -12.552 
55 1 -8.431 -14.802 -7.053 
56 1 2.259 -13.968 7.830 
57 1 -0.834 -2.259 -9.092 
58 1 -2.074 -2.934 3.213 
59 1 1.095 12.570 1.233 
60 1 -6.927 -10.776 3.473 
61 1 -8.097 5.889 1.634 
62 1 -6.990 11.728 -3.252 
63 1 -2.781 -10.770 -3.464 
64 1 12.470 -15.054 -14.053 
65 1 1.558 -9.788 -0.451 
66 1 -3.473 13.257 6.707 
67 1 4.167 3.253 -3.277 
68 1 5.757 8.499 -1.314 
69 1 12.979 10.768 12.830 
70 1 -5.627 -5.851 14.210 
71 1 -4.631 2.941 -2.852 
72 1 9.200 -5.657 -2.974 
73 1 -11.202 -8.389 -6.481 
74 1 -15.021 -9.614 -3.698 
75 1 8.487 4.449 5.284 
76 1 -0.100 12.048 -7.877 
77 1 7.203 9.007 -7.261 
78 1 -2.252 -0.192 -1.143 
79 1 3.085 11.269 -14.742 
80 1 -9.264 -5.483 -3.637 
81 1 9.027 10.254 -2.553 
82 1 6.966 10.223 12.766 
83 1 4.779 10.336 -10.011 
84 1 3.922 14.268 13.744 
85 1 3.917 2.320 -9.762 
86 1 -12.283 -4.925 3.066 
87 1 -2.472 3.746 3.838 
88 1 -8.575 -13.846 5.909 
89 1 0.031 -8.133 4.020 
90 1 5.558 -10.888 -11.989 
91 1 -6.732 0.907 7.322 
92 1 5.519 5.660 -4.728 
93 1 5.858 15.021 2.086 
94 1 -0.321 -12.033 0.921 
95 1 -5.029 2.276 -14.472 
96 1 -1.099 -14.154 -10.763 
97 1 -12.430 6.001 -0.512 
98 1 -5.163 -13.188 -5.580 
99 1 -5.852 -15.001 -2.098 
100 1 11.909 -3.338 3.203 
101 1 9.878 0.379 -10.549 
102 1 9.797 6.562 13.837 
103 1 8.874 -14.849 -13.268 
104 1 0.295 -10.140 -12.272 
105 1 -7.560 -14.099 -13.651 
106 1 -4.925 -7.345 8.018 
107 1 -0.286 -2.420 10.986 
108 1 -12.653 6.926 4.842 
109 1 -3.633 -4.468 -1.086 
110 1 3.604 -0.157 -14.424 
111 1 -4.697 -13.130 -10.283 
112 1 -10.911 -1.328 8.691 
113 1 12.840 -6.357 14.863 
114 1 11.406 -8.847 12.073 
115 1 -11.312 10.380 -1.986 
116 1 13.830 -7.937 3.772 
117 1 -9.312 -13.763 2.412 
118 1 -11.535 14.190 -1.059 
119 1 -11.685 1.099 12.301 
120 1 -1.189 -14.383 5.187 
121 1 2.480 8.627 11.928 
122 1 10.367 -10.374 4.392 
123 1 -7.416 -8.621 -10.029 
124 1 -8.594 2.396 0.595 
125 1 -4.162 -8.231 4.615 
126 1 14.170 -3.348 -4.485 
127 1 -11.578 -0.316 2.154 
128 1 3.897 -7.925 3.552 
129 1 -8.051 -1.857 5.500 
130 1 -0.936 9.780 11.280 
131 1 -10.293 -9.036 -13.539 
132 1 14.466 -9.430 -12.718 
133 1 -13.525 10.464 7.023 
134 1 13.853 13.259 0.291 
135 1 10.920 10.309 0.938 
136 1 6.088 -12.594 12.699 
137 1 -5.715 -2.114 -6.755 
138 1 12.467 -10.209 14.888 
139 1 5.322 5.010 1.993 
140 1 -10.679 14.062 9.842 
141 1 -8.820 -12.030 -4.687 
142 1 8.148 12.331 -8.121 
143 1 6.985 -4.465 -0.432 
144 1 -6.731 13.620 5.419 
145 1 -0.622 1.724 1.447 
146 1 5.737 -2.378 -10.332 
147 1 4.022 -10.716 7.175 
148 1 -7.545 1.761 -5.701 
149 1 -0.053 13.279 -4.292 
150 1 0.386 11.271 4.838 
151 1 -2.460 -14.841 1.423 
152 1 6.760 -7.298 -14.702 
153 1 12.896 -12.719 5.220 
154 1 -2.617 -0.349 5.737 
155 1 7.517 -7.310 10.955 
156 1 8.443 12.722 1.581 
157 1 -5.718 0.560 11.424 
158 1 1.539 8.846 0.809 
159 1 12.435 -6.794 -6.391 
160 1 -8.548 -4.923 -14.039 
161 1 9.336 5.648 -1.830 
162 1 -12.739 0.502 5.620 
163 1 -10.608 9.472 3.168 
164 1 -10.927 7.669 9.066 
165 1 8.027 8.211 1.900 
166 1 -11.681 -8.342 4.244 
167 1 -6.195 -2.266 8.807 
168 1 -2.528 -9.151 -6.484 
169 1 -2.257 8.989 -12.523 
170 1 3.797 8.212 -7.417 
171 1 9.839 1.725 14.919 
172 1 12.937 0.255 7.865 
173 1 2.728 6.917 5.178 
174 1 -2.269 -6.975 -2.935 
175 1 5.552 13.448 5.462 
176 1 2.464 -15.054 4.480 
177 1 12.567 -12.516 8.248 
178 1 -4.256 13.571 -8.279 
179 1 -4.845 1.268 2.058 
180 1 -0.810 6.576 -14.650 
181 1 12.742 5.725 -6.820 
182 1 10.087 7.822 -12.098 
183 1 9.056 -0.134 -5.778 
184 1 8.206 3.881 -12.044 
185 1 -12.602 13.440 2.440 
186 1 -0.057 -3.631 -5.132 
187 1 -12.387 -11.675 -1.845 
188 1 -4.272 9.707 -1.857 
189 1 -8.042 8.944 6.520 
190 1 -3.827 14.680 -14.729 
191 1 -6.355 9.950 1.544 
192 1 -14.300 -5.055 -8.803 
193 1 -2.771 -4.472 6.509 
194 1 -7.582 3.940 14.258 
195 1 15.044 5.340 10.011 
196 1 -10.893 3.312 8.364 
197 1 10.365 -13.426 11.525 
198 1 4.760 -0.515 2.060 
199 1 -6.144 -7.558 -13.309 
200 1 -5.000 -10.494 0.701 
