# LAMMPS data file

200 atoms
1 atom types

-16.502 16.502 xlo xhi
-16.502 16.502 ylo yhi
-16.502 16.502 zlo zhi

Atoms

1 1 0.690 -7.641 -0.717 
2 1 -1.515 -14.736 7.510 
3 1 -4.293 1.897 -7.310 
4 1 -5.453 -10.335 -12.911 
5 1 -2.554 -10.827 7.021 
6 1 -8.898 15.485 2.618 
7 1 9.649 -1.733 12.907 
8 1 -11.632 10.142 -8.929 
9 1 14.251 14.618 -5.682 
10 1 11.413 -5.790 9.413 
11 1 6.823 4.207 4.942 
12 1 8.244 14.605 -12.216 
13 1 -8.075 6.369 -13.873 
14 1 -11.171 -3.340 -7.322 
15 1 -9.976 1.536 -6.937 
16 1 7.704 -8.544 -8.386 
17 1 -5.634 15.220 -1.211 
18 1 -5.958 -3.688 -1.899 
19 1 -12.407 10.577 -1.110 
20 1 -12.062 -1.299 11.153 
21 1 3.128 12.600 2.842 
22 1 -3.002 12.933 -5.003 
23 1 8.270 -8.948 4.389 
24 1 -2.566 6.024 -7.248 
25 1 -6.967 -14.810 -12.353 
26 1 -16.425 -8.670 -16.135 
27 1 -11.313 15.618 14.212 
28 1 -12.428 -11.971 0.457 
29 1 -15.640 -15.637 13.156 
30 1 10.661 16.462 -10.321 
31 1 -10.208 -6.870 8.271 
32 1 6.139 -1.524 11.945 
33 1 12.541 6.075 2.561 
34 1 4.553 -1.074 -13.911 
35 1 1.434 8.115 -15.333 
36 1 -8.031 4.424 15.836 
37 1 3.265 -10.752 -12.144 
38 1 3.522 -12.112 -2.209 
39 1 -8.716 14.935 -13.625 
40 1 0.203 -12.565 0.975 
41 1 -15.615 16.404 -15.107 
42 1 8.801 -15.440 -5.371 
43 1 -3.061 -13.424 -7.916 
44 1 -15.877 6.186 13.554 
45 1 11.333 14.303 -15.863 
46 1 13.605 -5.733 -14.390 
47 1 0.743 13.096 -8.137 
48 1 13.980 -2.136 -13.984 
49 1 -1.214 -8.189 -5.049 
50 1 14.478 -5.579 -2.348 
51 1 2.209 12.614 10.658 
52 1 10.940 1.885 6.057 
53 1 13.309 -1.473 10.431 
54 1 -1.735 -4.779 -12.604 
55 1 -15.905 2.355 9.836 
56 1 -6.432 -15.154 6.898 
57 1 -12.863 -5.774 -10.431 
58 1 10.413 2.486 2.671 
59 1 12.889 -15.595 15.194 
60 1 -0.389 1.737 -8.762 
61 1 8.483 -8.850 -1.212 
62 1 -9.643 -7.231 2.899 
63 1 7.028 9.677 8.331 
64 1 2.399 3.224 9.587 
65 1 8.925 15.870 12.886 
66 1 5.275 10.469 15.869 
67 1 9.940 11.108 0.866 
68 1 4.156 -3.217 2.848 
69 1 -3.952 13.928 11.319 
70 1 8.193 -15.163 9.779 
71 1 13.087 11.806 -3.701 
72 1 -3.967 -2.748 -10.033 
73 1 7.991 13.131 15.531 
74 1 7.995 1.675 8.238 
75 1 -13.958 -6.326 -6.460 
76 1 7.535 13.725 3.488 
77 1 -7.437 0.898 15.466 
78 1 12.474 -3.319 -4.475 
79 1 3.636 -3.682 11.235 
80 1 8.056 -7.241 -13.479 
81 1 -6.939 -15.387 15.308 
82 1 10.114 -13.868 -14.124 
83 1 9.375 -13.739 5.805 
84 1 -3.762 7.309 -10.130 
85 1 -3.470 13.948 -15.880 
86 1 0.280 10.749 5.043 
87 1 -2.188 14.657 1.126 
88 1 -8.743 -7.601 14.091 
89 1 13.184 14.799 -1.028 
90 1 -3.955 2.122 15.165 
91 1 -10.092 -13.352 8.328 
92 1 -3.131 10.625 -8.900 
93 1 -8.172 -0.067 -9.593 
94 1 -8.644 -11.572 10.898 
95 1 -7.227 -3.382 3.648 
96 1 7.550 -14.788 1.130 
97 1 -8.515 -4.657 -10.074 
98 1 16.037 12.488 -2.155 
99 1 0.414 -12.892 13.678 
100 1 14.994 -8.518 4.091 
101 1 -6.330 3.796 -11.831 
102 1 -7.540 -8.859 0.368 
103 1 2.270 9.128 -6.999 
104 1 -6.464 -13.382 -4.494 
105 1 -12.285 3.581 6.118 
106 1 10.128 -12.267 -2.830 
107 1 11.640 15.006 6.585 
108 1 3.568 9.976 -13.132 
109 1 -6.389 12.746 -12.498 
110 1 -3.757 -1.138 -4.414 
111 1 15.180 -1.948 0.863 
112 1 10.399 2.906 -5.680 
113 1 1.760 15.248 15.554 
114 1 -3.482 -6.321 8.865 
115 1 -6.914 -0.383 1.415 
116 1 0.883 11.585 -2.106 
117 1 4.089 11.502 7.340 
118 1 0.593 -10.933 7.074 
119 1 -11.726 -2.592 4.686 
120 1 -1.493 -0.204 14.253 
121 1 -9.638 9.280 11.119 
122 1 -4.846 8.791 -6.952 
123 1 1.639 -1.685 -3.838 
124 1 10.825 -6.480 2.946 
125 1 10.953 -12.798 11.329 
126 1 -5.045 -11.700 0.886 
127 1 11.750 1.973 -1.306 
128 1 -1.904 13.566 6.977 
129 1 6.074 -16.143 5.344 
130 1 12.137 -9.520 10.407 
131 1 -7.569 12.246 -7.462 
132 1 -13.863 8.964 7.876 
133 1 4.429 -6.808 -3.045 
134 1 -16.229 -3.062 10.211 
135 1 14.342 0.961 -10.444 
136 1 15.048 0.505 -6.333 
137 1 -0.643 -11.201 -2.507 
138 1 -1.116 -6.114 5.699 
139 1 4.021 4.969 -1.609 
140 1 0.381 -7.876 11.111 
141 1 7.942 9.462 14.575 
142 1 -1.209 -3.909 -4.218 
143 1 12.588 -6.783 14.611 
144 1 -2.684 -10.281 -16.189 
145 1 -8.140 8.790 -11.175 
146 1 6.203 2.036 -16.414 
147 1 1.547 2.832 -4.236 
148 1 -11.911 -12.585 -8.569 
149 1 -6.760 -3.082 -7.432 
150 1 -2.101 7.811 12.789 
151 1 -12.390 -1.617 -4.102 
152 1 15.715 12.471 8.509 
153 1 0.214 4.573 -13.337 
154 1 7.070 0.443 -3.108 
155 1 10.267 7.635 5.196 
156 1 12.905 13.719 11.997 
157 1 2.297 15.796 -13.932 
158 1 16.090 10.297 11.183 
159 1 -7.061 -2.735 7.300 
160 1 7.245 -6.305 14.319 
161 1 15.273 -15.255 5.854 
162 1 14.114 -11.178 -8.155 
163 1 6.793 -12.066 3.768 
164 1 1.732 9.084 13.326 
165 1 -6.707 12.067 2.180 
166 1 -6.949 12.536 12.188 
167 1 10.077 -1.257 3.224 
168 1 7.043 -9.733 -16.170 
169 1 3.637 9.194 0.918 
170 1 2.929 -14.399 -4.295 
171 1 15.202 -12.311 -15.403 
172 1 -8.761 -12.557 0.586 
173 1 14.813 13.988 -14.394 
174 1 -10.249 -6.684 -6.074 
175 1 11.517 9.467 13.574 
176 1 -1.971 4.881 10.574 
177 1 9.991 -1.095 -10.782 
178 1 -7.481 8.755 0.443 
179 1 10.234 15.206 1.913 
180 1 9.467 4.984 -11.786 
181 1 -1.410 -5.072 -7.256 
182 1 14.115 -10.806 -12.007 
183 1 10.203 12.748 -8.332 
184 1 14.016 -3.000 5.337 
185 1 14.255 4.048 4.781 
186 1 -0.117 2.950 5.438 
187 1 5.847 0.688 -9.832 
188 1 15.531 7.740 1.319 
189 1 -13.184 8.479 14.836 
190 1 -0.289 -13.431 4.666 
191 1 -2.899 -7.516 1.277 
192 1 11.166 10.844 10.172 
193 1 2.190 6.852 9.530 
194 1 -14.047 7.660 -10.977 
195 1 -16.426 0.745 15.599 
196 1 -16.391 11.915 14.036 
197 1 0.454 -9.467 2.541 
198 1 -10.143 -13.087 14.609 
199 1 2.747 5.581 13.839 
200 1 4.304 5.706 -14.609 
