# LAMMPS data file

200 atoms
1 atom types

-12.750 12.750 xlo xhi
-12.750 12.750 ylo yhi
-12.750 12.750 zlo zhi

Atoms

1 1 -8.776 -7.879 6.382 
2 1 9.376 11.311 5.522 
3 1 5.960 -12.723 -0.052 
4 1 -6.180 3.920 8.367 
5 1 12.334 -6.881 10.087 
6 1 -8.717 -2.423 -0.323 
7 1 -1.554 1.274 -7.986 
8 1 -0.670 3.611 9.183 
9 1 -11.798 3.312 4.302 
10 1 -5.986 4.310 3.974 
11 1 10.719 -3.063 7.462 
12 1 6.802 -12.544 8.218 
13 1 3.617 12.607 -4.966 
14 1 -2.436 -3.964 -5.549 
15 1 6.792 -8.868 6.944 
16 1 -6.827 7.878 -1.859 
17 1 2.714 -0.167 0.152 
18 1 9.769 7.710 -11.483 
19 1 -1.714 10.269 2.017 
20 1 -10.345 -7.238 -10.190 
21 1 -10.583 -4.544 4.200 
22 1 -4.039 6.426 9.881 
23 1 12.386 0.298 -5.781 
24 1 -10.666 -10.270 0.525 
25 1 -11.481 -4.725 -4.855 
26 1 -5.538 10.983 8.794 
27 1 8.589 -5.504 7.350 
28 1 -0.729 12.547 -0.535 
29 1 3.115 9.424 4.858 
30 1 -11.012 -9.877 -6.147 
31 1 11.130 -10.599 0.890 
32 1 9.656 6.192 10.865 
33 1 12.641 10.193 -7.949 
34 1 7.547 5.814 -4.813 
35 1 -10.868 6.821 -7.183 
36 1 -10.837 -12.687 4.261 
37 1 11.764 4.941 -12.503 
38 1 4.711 -12.184 -11.845 
39 1 12.141 3.619 -8.831 
40 1 3.548 1.575 -7.338 
41 1 -9.030 -6.649 -3.813 
42 1 0.145 -5.983 9.992 
43 1 1.922 0.520 8.927 
44 1 -1.466 -12.353 -3.518 
45 1 -6.700 11.053 -9.862 
46 1 10.273 1.354 -11.199 
47 1 1.620 -10.443 -8.075 
48 1 -12.113 10.777 10.355 
49 1 -4.723 -10.344 4.616 
50 1 5.746 -3.291 -11.673 
51 1 4.902 7.052 -2.861 
52 1 7.336 2.238 -7.094 
53 1 0.884 -1.317 -6.288 
54 1 -10.389 10.100 -11.073 
55 1 -6.945 -10.125 -11.395 
56 1 2.618 12.550 6.774 
57 1 -2.094 -3.749 -9.456 
58 1 -1.713 -2.109 1.774 
59 1 2.344 9.994 0.365 
60 1 -6.896 -8.719 2.491 
61 1 -5.222 4.175 -0.337 
62 1 -7.915 11.712 -3.112 
63 1 0.714 -9.211 -4.307 
64 1 11.835 11.147 -11.426 
65 1 3.123 -8.655 0.035 
66 1 -2.944 12.141 7.018 
67 1 4.286 3.935 -1.721 
68 1 7.774 7.572 -0.781 
69 1 9.770 9.798 10.598 
70 1 -4.009 -4.153 11.291 
71 1 -3.057 3.276 -3.370 
72 1 8.095 -3.980 -1.800 
73 1 -10.208 -6.811 -6.843 
74 1 -11.801 -8.168 -1.575 
75 1 7.675 2.566 4.821 
76 1 1.418 10.876 -8.456 
77 1 8.284 11.933 -7.226 
78 1 1.920 1.280 -2.987 
79 1 3.718 10.056 -10.802 
80 1 -5.399 -5.751 -6.657 
81 1 6.502 9.861 -4.192 
82 1 5.537 8.035 10.737 
83 1 4.332 6.356 -9.324 
84 1 3.013 10.614 11.040 
85 1 1.442 3.581 -8.959 
86 1 -9.938 -6.278 1.445 
87 1 -2.079 5.219 3.102 
88 1 -7.009 11.419 4.934 
89 1 1.936 -6.072 4.036 
90 1 5.724 -8.532 -8.717 
91 1 -6.048 0.729 5.610 
92 1 3.698 4.046 -4.989 
93 1 5.924 -10.280 3.239 
94 1 0.827 -10.095 2.149 
95 1 -1.903 1.548 12.453 
96 1 -2.110 11.364 -6.783 
97 1 -12.665 6.978 2.944 
98 1 -4.654 -12.670 -2.561 
99 1 -3.943 9.761 -4.067 
100 1 10.288 -3.386 2.449 
101 1 8.900 -0.857 -8.338 
102 1 9.504 2.993 9.015 
103 1 7.669 10.965 -10.528 
104 1 -0.389 -9.621 -11.924 
105 1 -9.287 -10.559 -9.380 
106 1 -4.659 -5.519 7.919 
107 1 -0.537 -2.648 9.630 
108 1 -8.775 4.976 1.739 
109 1 -2.355 -5.891 -1.131 
110 1 4.199 1.305 -10.842 
111 1 -2.644 -12.285 -9.568 
112 1 -8.132 -1.492 7.995 
113 1 10.326 -6.341 -9.405 
114 1 8.927 -4.929 12.562 
115 1 -9.278 9.753 -6.057 
116 1 -12.574 -6.629 6.447 
117 1 -6.186 -12.012 1.301 
118 1 -11.138 -12.408 -2.487 
119 1 -11.489 3.534 10.884 
120 1 -0.705 -10.988 5.392 
121 1 1.440 8.076 8.539 
122 1 9.836 -7.614 2.524 
123 1 -7.065 -8.469 -7.903 
124 1 -7.657 0.677 0.916 
125 1 -2.886 -3.924 4.844 
126 1 12.394 -1.925 -2.856 
127 1 -11.670 -0.888 1.071 
128 1 5.683 -6.032 3.634 
129 1 -6.547 -1.796 3.262 
130 1 -0.776 10.376 10.493 
131 1 -9.755 -8.487 12.205 
132 1 11.908 -9.242 -12.293 
133 1 -10.781 9.954 5.903 
134 1 11.024 9.975 -0.932 
135 1 8.784 7.940 4.223 
136 1 2.902 -9.567 9.524 
137 1 -5.474 -3.126 -2.954 
138 1 -11.542 -9.881 9.917 
139 1 3.399 3.422 2.250 
140 1 -9.008 12.150 8.766 
141 1 -7.233 -10.861 -4.623 
142 1 4.439 10.203 -7.717 
143 1 5.582 -5.129 0.009 
144 1 -2.450 8.499 7.808 
145 1 -2.326 0.817 -1.204 
146 1 4.657 -4.744 -8.012 
147 1 2.644 -9.258 4.828 
148 1 -5.720 0.676 -4.104 
149 1 -0.668 9.728 -2.816 
150 1 0.304 10.562 5.110 
151 1 -2.679 -11.491 2.549 
152 1 5.808 -6.710 -11.830 
153 1 9.580 -10.618 4.233 
154 1 -0.624 0.751 3.521 
155 1 5.070 -5.394 10.074 
156 1 7.337 11.894 3.128 
157 1 -5.206 -0.021 9.837 
158 1 0.537 5.790 0.863 
159 1 9.694 -6.068 -5.533 
160 1 -6.552 -4.235 -11.465 
161 1 9.840 4.034 -1.287 
162 1 -12.290 0.124 4.509 
163 1 -10.095 9.524 1.932 
164 1 -9.518 7.868 8.075 
165 1 4.813 7.127 1.335 
166 1 -11.713 -8.109 3.610 
167 1 -2.964 -0.985 6.944 
168 1 -1.292 -8.147 -7.129 
169 1 -3.382 8.181 12.676 
170 1 2.896 7.935 -5.638 
171 1 7.024 1.627 11.722 
172 1 -11.828 -1.569 7.442 
173 1 1.098 4.882 5.141 
174 1 -5.594 -7.451 -3.888 
175 1 6.055 10.352 6.144 
176 1 3.217 12.503 3.342 
177 1 11.471 -9.875 7.537 
178 1 -5.079 -12.352 -7.041 
179 1 -4.117 1.611 2.473 
180 1 -0.150 6.938 12.353 
181 1 12.155 4.953 -5.459 
182 1 8.652 6.319 -8.895 
183 1 5.679 0.858 -3.488 
184 1 7.190 3.549 -10.363 
185 1 11.462 10.604 2.705 
186 1 0.332 -3.115 -2.674 
187 1 -7.803 -9.733 -0.970 
188 1 -4.307 9.721 -0.601 
189 1 -8.054 7.622 4.778 
190 1 -4.591 11.897 12.200 
191 1 -4.908 8.355 3.276 
192 1 11.884 -3.536 -7.070 
193 1 -0.964 -7.489 6.617 
194 1 -5.396 4.705 12.729 
195 1 12.404 4.614 7.010 
196 1 -9.531 3.015 7.282 
197 1 9.344 -10.974 10.847 
198 1 3.622 -0.114 3.452 
199 1 -3.727 -7.345 -10.654 
200 1 -3.627 -9.707 -0.418 
