# LAMMPS data file

200 atoms
1 atom types

-12.753 12.753 xlo xhi
-12.753 12.753 ylo yhi
-12.753 12.753 zlo zhi

Atoms

1 1 12.206 4.970 -9.836 
2 1 -5.375 -5.827 -10.888 
3 1 12.006 -10.601 4.434 
4 1 1.784 6.025 -3.230 
5 1 -8.706 -2.279 -4.609 
6 1 11.718 -9.390 -8.777 
7 1 11.893 9.562 6.246 
8 1 11.245 -1.074 9.771 
9 1 -0.697 9.583 11.163 
10 1 10.248 -4.218 10.354 
11 1 -8.550 10.926 -12.629 
12 1 -5.661 -6.324 7.868 
13 1 -6.365 -1.922 -12.408 
14 1 0.278 12.254 -0.734 
15 1 -8.345 1.035 -1.591 
16 1 -5.009 -3.035 -7.942 
17 1 -7.242 -2.951 8.431 
18 1 7.472 -6.699 8.186 
19 1 0.841 1.611 -4.783 
20 1 5.309 11.583 7.009 
21 1 -3.946 10.943 9.817 
22 1 -1.969 9.595 3.091 
23 1 7.568 -9.892 10.697 
24 1 -3.242 0.019 -8.477 
25 1 4.952 10.129 -1.614 
26 1 10.183 1.673 6.506 
27 1 -9.168 7.086 -12.300 
28 1 10.334 5.354 6.572 
29 1 2.204 -6.793 1.477 
30 1 9.881 7.665 -1.329 
31 1 -9.849 8.340 8.517 
32 1 -12.158 -5.047 2.349 
33 1 -2.784 9.384 -0.598 
34 1 3.971 1.456 6.139 
35 1 9.989 11.994 4.412 
36 1 1.371 10.338 8.205 
37 1 10.651 -1.823 -12.586 
38 1 8.334 -3.411 -5.564 
39 1 12.679 0.297 -3.640 
40 1 -6.649 -8.931 1.315 
41 1 3.211 -3.795 9.174 
42 1 9.648 -6.535 2.591 
43 1 -9.109 -6.507 -11.940 
44 1 -3.872 0.997 2.651 
45 1 1.747 -11.658 11.407 
46 1 12.536 -12.460 -10.073 
47 1 -4.008 -1.438 5.575 
48 1 4.042 -10.799 -6.711 
49 1 -1.299 7.093 5.821 
50 1 7.471 -8.522 -5.232 
51 1 -10.216 -7.835 -7.570 
52 1 10.179 -6.139 -8.167 
53 1 -3.510 -4.189 1.669 
54 1 1.491 0.033 9.372 
55 1 11.705 3.464 2.172 
56 1 11.516 -2.068 2.479 
57 1 11.047 8.457 -6.993 
58 1 5.293 7.843 -11.240 
59 1 6.731 3.264 6.181 
60 1 -12.003 -0.221 4.876 
61 1 -11.723 8.039 -1.418 
62 1 -7.887 -12.696 9.566 
63 1 2.132 7.053 4.686 
64 1 11.652 -8.668 -0.728 
65 1 -2.138 -4.982 -5.507 
66 1 1.114 -10.019 -4.188 
67 1 -8.539 -10.860 -7.568 
68 1 -0.957 -6.251 3.045 
69 1 -1.672 0.635 12.502 
70 1 0.094 -7.530 -8.989 
71 1 3.303 -1.893 2.961 
72 1 -4.845 -7.532 -1.003 
73 1 -8.622 -10.414 -12.236 
74 1 -8.784 3.203 12.288 
75 1 12.464 0.377 -7.033 
76 1 4.780 9.455 -7.455 
77 1 -12.707 11.171 -5.069 
78 1 -5.734 2.492 11.283 
79 1 -6.171 2.118 8.094 
80 1 2.977 -5.041 5.742 
81 1 -11.869 4.292 7.490 
82 1 -1.327 0.788 5.920 
83 1 -1.393 -9.735 0.359 
84 1 -7.740 5.543 4.099 
85 1 10.502 7.898 3.385 
86 1 -5.804 -6.090 -6.816 
87 1 6.559 -12.251 -12.257 
88 1 4.094 -10.199 7.976 
89 1 3.043 -2.096 -4.671 
90 1 2.829 12.038 -10.398 
91 1 -5.256 8.064 7.755 
92 1 -12.260 5.574 11.224 
93 1 -7.089 9.331 10.741 
94 1 -0.712 7.352 -6.921 
95 1 8.565 8.968 -4.751 
96 1 2.657 9.955 11.856 
97 1 -1.677 3.867 -11.178 
98 1 12.591 -12.284 -2.646 
99 1 -1.392 2.123 -0.958 
100 1 -9.673 -5.707 -1.870 
101 1 6.731 -2.666 9.411 
102 1 6.705 -7.984 -8.485 
103 1 -4.101 -9.973 10.376 
104 1 -11.987 -3.167 -4.526 
105 1 8.663 -10.808 -10.390 
106 1 7.307 8.325 6.296 
107 1 6.808 12.120 3.559 
108 1 -6.030 -12.406 -10.706 
109 1 5.857 -4.905 3.336 
110 1 1.435 0.161 -1.571 
111 1 -8.522 -5.229 -9.252 
112 1 -0.037 -8.170 7.625 
113 1 -2.241 -2.911 8.237 
114 1 -2.821 -5.438 12.242 
115 1 -4.297 5.493 -6.025 
116 1 -7.067 11.214 2.372 
117 1 -10.359 -10.437 6.504 
118 1 9.011 5.549 12.525 
119 1 -6.947 -3.976 -1.307 
120 1 -6.293 9.437 5.118 
121 1 0.298 -4.260 0.027 
122 1 4.510 0.706 -9.600 
123 1 6.671 -2.628 5.314 
124 1 7.694 9.578 -9.909 
125 1 -2.868 0.647 -4.193 
126 1 7.141 1.281 9.080 
127 1 9.870 -1.698 6.708 
128 1 -12.288 -5.382 12.450 
129 1 -9.017 11.772 6.351 
130 1 9.639 11.389 -7.551 
131 1 -8.406 5.983 0.267 
132 1 7.706 2.661 0.901 
133 1 -5.946 -12.494 6.459 
134 1 -3.399 -2.447 -2.178 
135 1 3.761 -7.216 -2.304 
136 1 4.096 -9.613 2.234 
137 1 1.653 8.676 1.713 
138 1 -11.364 -3.378 7.245 
139 1 1.058 1.663 -10.722 
140 1 12.360 -7.386 5.434 
141 1 -1.107 12.445 -10.361 
142 1 -6.649 -4.619 11.206 
143 1 -2.085 3.948 3.491 
144 1 11.697 -10.277 12.280 
145 1 8.776 -3.210 0.812 
146 1 -3.768 10.917 -8.116 
147 1 4.317 -4.253 -0.403 
148 1 -7.212 -11.943 -1.824 
149 1 10.922 4.360 -1.702 
150 1 -11.109 -8.895 -4.185 
151 1 -9.409 10.906 -1.058 
152 1 6.098 8.510 2.178 
153 1 -3.140 -8.387 -10.772 
154 1 -5.878 9.427 -10.845 
155 1 9.489 2.549 -7.114 
156 1 -6.197 0.158 -5.598 
157 1 2.751 12.431 -4.035 
158 1 -10.722 2.995 -9.240 
159 1 -6.804 9.405 -3.415 
160 1 6.087 3.190 11.889 
161 1 5.757 -0.074 12.260 
162 1 -1.840 4.360 -3.720 
163 1 -9.537 -0.191 -12.393 
164 1 4.180 6.071 7.620 
165 1 0.377 -4.604 -11.096 
166 1 6.124 4.686 -10.610 
167 1 -8.178 -3.221 4.081 
168 1 8.819 12.227 9.666 
169 1 5.204 -12.125 0.341 
170 1 -2.812 -9.531 -6.016 
171 1 -6.516 0.712 -9.814 
172 1 -10.472 0.704 8.504 
173 1 -1.562 11.080 7.295 
174 1 1.993 -0.562 -7.927 
175 1 -3.650 -11.867 2.101 
176 1 -2.940 6.204 9.935 
177 1 -0.586 -1.043 3.447 
178 1 10.257 3.223 9.580 
179 1 10.410 -7.410 -11.211 
180 1 7.617 -8.620 4.175 
181 1 -10.291 -2.040 -0.551 
182 1 2.031 -12.225 2.095 
183 1 5.809 6.372 -0.788 
184 1 5.662 2.077 -4.192 
185 1 -0.018 3.136 9.934 
186 1 11.171 -7.415 -4.973 
187 1 5.539 5.998 -4.815 
188 1 -10.964 -11.135 0.314 
189 1 -5.795 5.826 -10.521 
190 1 -4.012 -2.125 11.054 
191 1 -4.122 4.453 6.455 
192 1 -9.906 -3.197 11.054 
193 1 -9.953 -6.070 5.256 
194 1 1.633 11.138 4.586 
195 1 -8.115 1.625 2.940 
196 1 3.504 -7.441 -10.919 
197 1 12.186 4.824 -6.034 
198 1 6.803 12.632 -3.908 
199 1 6.360 -5.631 -11.835 
200 1 3.069 5.209 12.228 
